V -t * -v 1.0a5 -a 0
A -t * -n 1 -p 0 -o 0x7fffffff -c 30 -a 1
A -t * -h 1 -m 1073741823 -s 0
c -t * -i 1 -n blue
n -t * -a 0 -s 0 -S UP -v circle -c yellow -i yellow
n -t * -a 1 -s 1 -S UP -v circle -c black -i black
n -t * -a 2 -s 2 -S UP -v circle -c orange -i orange
l -t * -s 0 -d 1 -S UP -r 1000000 -D 0.0080000000000000002 -c black
l -t * -s 2 -d 1 -S UP -r 100000 -D 0.0080000000000000002 -c black
+ -t 0.1 -s 0 -d 1 -p tcp -e 40 -c 1 -i 0 -a 1 -x {0.0 1.0 0 ------- null}
- -t 0.1 -s 0 -d 1 -p tcp -e 40 -c 1 -i 0 -a 1 -x {0.0 1.0 0 ------- null}
h -t 0.1 -s 0 -d 1 -p tcp -e 40 -c 1 -i 0 -a 1 -x {0.0 1.0 -1 ------- null}
+ -t 0.1 -s 2 -d 1 -p tcp -e 40 -c 2 -i 1 -a 2 -x {2.0 1.1 0 ------- null}
- -t 0.1 -s 2 -d 1 -p tcp -e 40 -c 2 -i 1 -a 2 -x {2.0 1.1 0 ------- null}
h -t 0.1 -s 2 -d 1 -p tcp -e 40 -c 2 -i 1 -a 2 -x {2.0 1.1 -1 ------- null}
r -t 0.10832 -s 0 -d 1 -p tcp -e 40 -c 1 -i 0 -a 1 -x {0.0 1.0 0 ------- null}
+ -t 0.10832 -s 1 -d 0 -p ack -e 40 -c 1 -i 2 -a 1 -x {1.0 0.0 0 ------- null}
- -t 0.10832 -s 1 -d 0 -p ack -e 40 -c 1 -i 2 -a 1 -x {1.0 0.0 0 ------- null}
h -t 0.10832 -s 1 -d 0 -p ack -e 40 -c 1 -i 2 -a 1 -x {1.0 0.0 -1 ------- null}
r -t 0.1112 -s 2 -d 1 -p tcp -e 40 -c 2 -i 1 -a 2 -x {2.0 1.1 0 ------- null}
+ -t 0.1112 -s 1 -d 2 -p ack -e 40 -c 2 -i 3 -a 2 -x {1.1 2.0 0 ------- null}
- -t 0.1112 -s 1 -d 2 -p ack -e 40 -c 2 -i 3 -a 2 -x {1.1 2.0 0 ------- null}
h -t 0.1112 -s 1 -d 2 -p ack -e 40 -c 2 -i 3 -a 2 -x {1.1 2.0 -1 ------- null}
r -t 0.11664 -s 1 -d 0 -p ack -e 40 -c 1 -i 2 -a 1 -x {1.0 0.0 0 ------- null}
+ -t 0.11664 -s 0 -d 1 -p tcp -e 1040 -c 1 -i 4 -a 1 -x {0.0 1.0 1 ------- null}
- -t 0.11664 -s 0 -d 1 -p tcp -e 1040 -c 1 -i 4 -a 1 -x {0.0 1.0 1 ------- null}
h -t 0.11664 -s 0 -d 1 -p tcp -e 1040 -c 1 -i 4 -a 1 -x {0.0 1.0 -1 ------- null}
+ -t 0.11664 -s 0 -d 1 -p tcp -e 1040 -c 1 -i 5 -a 1 -x {0.0 1.0 2 ------- null}
r -t 0.1224 -s 1 -d 2 -p ack -e 40 -c 2 -i 3 -a 2 -x {1.1 2.0 0 ------- null}
+ -t 0.1224 -s 2 -d 1 -p tcp -e 1040 -c 2 -i 6 -a 2 -x {2.0 1.1 1 ------- null}
- -t 0.1224 -s 2 -d 1 -p tcp -e 1040 -c 2 -i 6 -a 2 -x {2.0 1.1 1 ------- null}
h -t 0.1224 -s 2 -d 1 -p tcp -e 1040 -c 2 -i 6 -a 2 -x {2.0 1.1 -1 ------- null}
+ -t 0.1224 -s 2 -d 1 -p tcp -e 1040 -c 2 -i 7 -a 2 -x {2.0 1.1 2 ------- null}
- -t 0.12496 -s 0 -d 1 -p tcp -e 1040 -c 1 -i 5 -a 1 -x {0.0 1.0 2 ------- null}
h -t 0.12496 -s 0 -d 1 -p tcp -e 1040 -c 1 -i 5 -a 1 -x {0.0 1.0 -1 ------- null}
r -t 0.13296 -s 0 -d 1 -p tcp -e 1040 -c 1 -i 4 -a 1 -x {0.0 1.0 1 ------- null}
+ -t 0.13296 -s 1 -d 0 -p ack -e 40 -c 1 -i 8 -a 1 -x {1.0 0.0 1 ------- null}
- -t 0.13296 -s 1 -d 0 -p ack -e 40 -c 1 -i 8 -a 1 -x {1.0 0.0 1 ------- null}
h -t 0.13296 -s 1 -d 0 -p ack -e 40 -c 1 -i 8 -a 1 -x {1.0 0.0 -1 ------- null}
r -t 0.14128 -s 0 -d 1 -p tcp -e 1040 -c 1 -i 5 -a 1 -x {0.0 1.0 2 ------- null}
+ -t 0.14128 -s 1 -d 0 -p ack -e 40 -c 1 -i 9 -a 1 -x {1.0 0.0 2 ------- null}
- -t 0.14128 -s 1 -d 0 -p ack -e 40 -c 1 -i 9 -a 1 -x {1.0 0.0 2 ------- null}
h -t 0.14128 -s 1 -d 0 -p ack -e 40 -c 1 -i 9 -a 1 -x {1.0 0.0 -1 ------- null}
r -t 0.14128 -s 1 -d 0 -p ack -e 40 -c 1 -i 8 -a 1 -x {1.0 0.0 1 ------- null}
+ -t 0.14128 -s 0 -d 1 -p tcp -e 1040 -c 1 -i 10 -a 1 -x {0.0 1.0 3 ------- null}
- -t 0.14128 -s 0 -d 1 -p tcp -e 1040 -c 1 -i 10 -a 1 -x {0.0 1.0 3 ------- null}
h -t 0.14128 -s 0 -d 1 -p tcp -e 1040 -c 1 -i 10 -a 1 -x {0.0 1.0 -1 ------- null}
+ -t 0.14128 -s 0 -d 1 -p tcp -e 1040 -c 1 -i 11 -a 1 -x {0.0 1.0 4 ------- null}
r -t 0.1496 -s 1 -d 0 -p ack -e 40 -c 1 -i 9 -a 1 -x {1.0 0.0 2 ------- null}
+ -t 0.1496 -s 0 -d 1 -p tcp -e 1040 -c 1 -i 12 -a 1 -x {0.0 1.0 5 ------- null}
+ -t 0.1496 -s 0 -d 1 -p tcp -e 1040 -c 1 -i 13 -a 1 -x {0.0 1.0 6 ------- null}
d -t 0.1496 -s 0 -d 1 -p tcp -e 1040 -c 1 -i 13 -a 1 -x {0.0 1.0 6 ------- null}
- -t 0.1496 -s 0 -d 1 -p tcp -e 1040 -c 1 -i 11 -a 1 -x {0.0 1.0 4 ------- null}
h -t 0.1496 -s 0 -d 1 -p tcp -e 1040 -c 1 -i 11 -a 1 -x {0.0 1.0 -1 ------- null}
r -t 0.1576 -s 0 -d 1 -p tcp -e 1040 -c 1 -i 10 -a 1 -x {0.0 1.0 3 ------- null}
+ -t 0.1576 -s 1 -d 0 -p ack -e 40 -c 1 -i 14 -a 1 -x {1.0 0.0 3 ------- null}
- -t 0.1576 -s 1 -d 0 -p ack -e 40 -c 1 -i 14 -a 1 -x {1.0 0.0 3 ------- null}
h -t 0.1576 -s 1 -d 0 -p ack -e 40 -c 1 -i 14 -a 1 -x {1.0 0.0 -1 ------- null}
- -t 0.15792 -s 0 -d 1 -p tcp -e 1040 -c 1 -i 12 -a 1 -x {0.0 1.0 5 ------- null}
h -t 0.15792 -s 0 -d 1 -p tcp -e 1040 -c 1 -i 12 -a 1 -x {0.0 1.0 -1 ------- null}
r -t 0.16592 -s 0 -d 1 -p tcp -e 1040 -c 1 -i 11 -a 1 -x {0.0 1.0 4 ------- null}
+ -t 0.16592 -s 1 -d 0 -p ack -e 40 -c 1 -i 15 -a 1 -x {1.0 0.0 4 ------- null}
- -t 0.16592 -s 1 -d 0 -p ack -e 40 -c 1 -i 15 -a 1 -x {1.0 0.0 4 ------- null}
h -t 0.16592 -s 1 -d 0 -p ack -e 40 -c 1 -i 15 -a 1 -x {1.0 0.0 -1 ------- null}
r -t 0.16592 -s 1 -d 0 -p ack -e 40 -c 1 -i 14 -a 1 -x {1.0 0.0 3 ------- null}
+ -t 0.16592 -s 0 -d 1 -p tcp -e 1040 -c 1 -i 16 -a 1 -x {0.0 1.0 7 ------- null}
+ -t 0.16592 -s 0 -d 1 -p tcp -e 1040 -c 1 -i 17 -a 1 -x {0.0 1.0 8 ------- null}
- -t 0.16624 -s 0 -d 1 -p tcp -e 1040 -c 1 -i 16 -a 1 -x {0.0 1.0 7 ------- null}
h -t 0.16624 -s 0 -d 1 -p tcp -e 1040 -c 1 -i 16 -a 1 -x {0.0 1.0 -1 ------- null}
r -t 0.17424 -s 0 -d 1 -p tcp -e 1040 -c 1 -i 12 -a 1 -x {0.0 1.0 5 ------- null}
+ -t 0.17424 -s 1 -d 0 -p ack -e 40 -c 1 -i 18 -a 1 -x {1.0 0.0 5 ------- null}
- -t 0.17424 -s 1 -d 0 -p ack -e 40 -c 1 -i 18 -a 1 -x {1.0 0.0 5 ------- null}
h -t 0.17424 -s 1 -d 0 -p ack -e 40 -c 1 -i 18 -a 1 -x {1.0 0.0 -1 ------- null}
r -t 0.17424 -s 1 -d 0 -p ack -e 40 -c 1 -i 15 -a 1 -x {1.0 0.0 4 ------- null}
+ -t 0.17424 -s 0 -d 1 -p tcp -e 1040 -c 1 -i 19 -a 1 -x {0.0 1.0 9 ------- null}
+ -t 0.17424 -s 0 -d 1 -p tcp -e 1040 -c 1 -i 20 -a 1 -x {0.0 1.0 10 ------- null}
d -t 0.17424 -s 0 -d 1 -p tcp -e 1040 -c 1 -i 20 -a 1 -x {0.0 1.0 10 ------- null}
- -t 0.17456 -s 0 -d 1 -p tcp -e 1040 -c 1 -i 17 -a 1 -x {0.0 1.0 8 ------- null}
h -t 0.17456 -s 0 -d 1 -p tcp -e 1040 -c 1 -i 17 -a 1 -x {0.0 1.0 -1 ------- null}
r -t 0.18256 -s 0 -d 1 -p tcp -e 1040 -c 1 -i 16 -a 1 -x {0.0 1.0 7 ------- null}
+ -t 0.18256 -s 1 -d 0 -p ack -e 40 -c 1 -i 21 -a 1 -x {1.0 0.0 5 ------- null}
- -t 0.18256 -s 1 -d 0 -p ack -e 40 -c 1 -i 21 -a 1 -x {1.0 0.0 5 ------- null}
h -t 0.18256 -s 1 -d 0 -p ack -e 40 -c 1 -i 21 -a 1 -x {1.0 0.0 -1 ------- null}
r -t 0.18256 -s 1 -d 0 -p ack -e 40 -c 1 -i 18 -a 1 -x {1.0 0.0 5 ------- null}
+ -t 0.18256 -s 0 -d 1 -p tcp -e 1040 -c 1 -i 22 -a 1 -x {0.0 1.0 11 ------- null}
+ -t 0.18256 -s 0 -d 1 -p tcp -e 1040 -c 1 -i 23 -a 1 -x {0.0 1.0 12 ------- null}
d -t 0.18256 -s 0 -d 1 -p tcp -e 1040 -c 1 -i 23 -a 1 -x {0.0 1.0 12 ------- null}
- -t 0.18288 -s 0 -d 1 -p tcp -e 1040 -c 1 -i 19 -a 1 -x {0.0 1.0 9 ------- null}
h -t 0.18288 -s 0 -d 1 -p tcp -e 1040 -c 1 -i 19 -a 1 -x {0.0 1.0 -1 ------- null}
r -t 0.19088 -s 0 -d 1 -p tcp -e 1040 -c 1 -i 17 -a 1 -x {0.0 1.0 8 ------- null}
+ -t 0.19088 -s 1 -d 0 -p ack -e 40 -c 1 -i 24 -a 1 -x {1.0 0.0 5 ------- null}
- -t 0.19088 -s 1 -d 0 -p ack -e 40 -c 1 -i 24 -a 1 -x {1.0 0.0 5 ------- null}
h -t 0.19088 -s 1 -d 0 -p ack -e 40 -c 1 -i 24 -a 1 -x {1.0 0.0 -1 ------- null}
r -t 0.19088 -s 1 -d 0 -p ack -e 40 -c 1 -i 21 -a 1 -x {1.0 0.0 5 ------- null}
+ -t 0.19088 -s 0 -d 1 -p tcp -e 1040 -c 1 -i 25 -a 1 -x {0.0 1.0 13 ------- null}
- -t 0.1912 -s 0 -d 1 -p tcp -e 1040 -c 1 -i 22 -a 1 -x {0.0 1.0 11 ------- null}
h -t 0.1912 -s 0 -d 1 -p tcp -e 1040 -c 1 -i 22 -a 1 -x {0.0 1.0 -1 ------- null}
r -t 0.1992 -s 0 -d 1 -p tcp -e 1040 -c 1 -i 19 -a 1 -x {0.0 1.0 9 ------- null}
+ -t 0.1992 -s 1 -d 0 -p ack -e 40 -c 1 -i 26 -a 1 -x {1.0 0.0 5 ------- null}
- -t 0.1992 -s 1 -d 0 -p ack -e 40 -c 1 -i 26 -a 1 -x {1.0 0.0 5 ------- null}
h -t 0.1992 -s 1 -d 0 -p ack -e 40 -c 1 -i 26 -a 1 -x {1.0 0.0 -1 ------- null}
r -t 0.1992 -s 1 -d 0 -p ack -e 40 -c 1 -i 24 -a 1 -x {1.0 0.0 5 ------- null}
+ -t 0.1992 -s 0 -d 1 -p tcp -e 1040 -c 1 -i 27 -a 1 -x {0.0 1.0 14 ------- null}
- -t 0.19952 -s 0 -d 1 -p tcp -e 1040 -c 1 -i 25 -a 1 -x {0.0 1.0 13 ------- null}
h -t 0.19952 -s 0 -d 1 -p tcp -e 1040 -c 1 -i 25 -a 1 -x {0.0 1.0 -1 ------- null}
- -t 0.2056 -s 2 -d 1 -p tcp -e 1040 -c 2 -i 7 -a 2 -x {2.0 1.1 2 ------- null}
h -t 0.2056 -s 2 -d 1 -p tcp -e 1040 -c 2 -i 7 -a 2 -x {2.0 1.1 -1 ------- null}
r -t 0.20752 -s 0 -d 1 -p tcp -e 1040 -c 1 -i 22 -a 1 -x {0.0 1.0 11 ------- null}
+ -t 0.20752 -s 1 -d 0 -p ack -e 40 -c 1 -i 28 -a 1 -x {1.0 0.0 5 ------- null}
- -t 0.20752 -s 1 -d 0 -p ack -e 40 -c 1 -i 28 -a 1 -x {1.0 0.0 5 ------- null}
h -t 0.20752 -s 1 -d 0 -p ack -e 40 -c 1 -i 28 -a 1 -x {1.0 0.0 -1 ------- null}
r -t 0.20752 -s 1 -d 0 -p ack -e 40 -c 1 -i 26 -a 1 -x {1.0 0.0 5 ------- null}
+ -t 0.20752 -s 0 -d 1 -p tcp -e 1040 -c 1 -i 29 -a 1 -x {0.0 1.0 6 ---A--- null}
- -t 0.20784 -s 0 -d 1 -p tcp -e 1040 -c 1 -i 27 -a 1 -x {0.0 1.0 14 ------- null}
h -t 0.20784 -s 0 -d 1 -p tcp -e 1040 -c 1 -i 27 -a 1 -x {0.0 1.0 -1 ------- null}
r -t 0.2136 -s 2 -d 1 -p tcp -e 1040 -c 2 -i 6 -a 2 -x {2.0 1.1 1 ------- null}
+ -t 0.2136 -s 1 -d 2 -p ack -e 40 -c 2 -i 30 -a 2 -x {1.1 2.0 1 ------- null}
- -t 0.2136 -s 1 -d 2 -p ack -e 40 -c 2 -i 30 -a 2 -x {1.1 2.0 1 ------- null}
h -t 0.2136 -s 1 -d 2 -p ack -e 40 -c 2 -i 30 -a 2 -x {1.1 2.0 -1 ------- null}
r -t 0.21584 -s 0 -d 1 -p tcp -e 1040 -c 1 -i 25 -a 1 -x {0.0 1.0 13 ------- null}
+ -t 0.21584 -s 1 -d 0 -p ack -e 40 -c 1 -i 31 -a 1 -x {1.0 0.0 5 ------- null}
- -t 0.21584 -s 1 -d 0 -p ack -e 40 -c 1 -i 31 -a 1 -x {1.0 0.0 5 ------- null}
h -t 0.21584 -s 1 -d 0 -p ack -e 40 -c 1 -i 31 -a 1 -x {1.0 0.0 -1 ------- null}
r -t 0.21584 -s 1 -d 0 -p ack -e 40 -c 1 -i 28 -a 1 -x {1.0 0.0 5 ------- null}
- -t 0.21616 -s 0 -d 1 -p tcp -e 1040 -c 1 -i 29 -a 1 -x {0.0 1.0 6 ---A--- null}
h -t 0.21616 -s 0 -d 1 -p tcp -e 1040 -c 1 -i 29 -a 1 -x {0.0 1.0 -1 ---A--- null}
r -t 0.22416 -s 0 -d 1 -p tcp -e 1040 -c 1 -i 27 -a 1 -x {0.0 1.0 14 ------- null}
+ -t 0.22416 -s 1 -d 0 -p ack -e 40 -c 1 -i 32 -a 1 -x {1.0 0.0 5 ------- null}
- -t 0.22416 -s 1 -d 0 -p ack -e 40 -c 1 -i 32 -a 1 -x {1.0 0.0 5 ------- null}
h -t 0.22416 -s 1 -d 0 -p ack -e 40 -c 1 -i 32 -a 1 -x {1.0 0.0 -1 ------- null}
r -t 0.22416 -s 1 -d 0 -p ack -e 40 -c 1 -i 31 -a 1 -x {1.0 0.0 5 ------- null}
r -t 0.2248 -s 1 -d 2 -p ack -e 40 -c 2 -i 30 -a 2 -x {1.1 2.0 1 ------- null}
+ -t 0.2248 -s 2 -d 1 -p tcp -e 1040 -c 2 -i 33 -a 2 -x {2.0 1.1 3 ------- null}
+ -t 0.2248 -s 2 -d 1 -p tcp -e 1040 -c 2 -i 34 -a 2 -x {2.0 1.1 4 ------- null}
r -t 0.23248 -s 0 -d 1 -p tcp -e 1040 -c 1 -i 29 -a 1 -x {0.0 1.0 6 ---A--- null}
+ -t 0.23248 -s 1 -d 0 -p ack -e 40 -c 1 -i 35 -a 1 -x {1.0 0.0 9 ------- null}
- -t 0.23248 -s 1 -d 0 -p ack -e 40 -c 1 -i 35 -a 1 -x {1.0 0.0 9 ------- null}
h -t 0.23248 -s 1 -d 0 -p ack -e 40 -c 1 -i 35 -a 1 -x {1.0 0.0 -1 ------- null}
r -t 0.23248 -s 1 -d 0 -p ack -e 40 -c 1 -i 32 -a 1 -x {1.0 0.0 5 ------- null}
r -t 0.2408 -s 1 -d 0 -p ack -e 40 -c 1 -i 35 -a 1 -x {1.0 0.0 9 ------- null}
+ -t 0.2408 -s 0 -d 1 -p tcp -e 1040 -c 1 -i 36 -a 1 -x {0.0 1.0 10 ------- null}
- -t 0.2408 -s 0 -d 1 -p tcp -e 1040 -c 1 -i 36 -a 1 -x {0.0 1.0 10 ------- null}
h -t 0.2408 -s 0 -d 1 -p tcp -e 1040 -c 1 -i 36 -a 1 -x {0.0 1.0 -1 ------- null}
+ -t 0.2408 -s 0 -d 1 -p tcp -e 1040 -c 1 -i 37 -a 1 -x {0.0 1.0 11 ------- null}
- -t 0.24912 -s 0 -d 1 -p tcp -e 1040 -c 1 -i 37 -a 1 -x {0.0 1.0 11 ------- null}
h -t 0.24912 -s 0 -d 1 -p tcp -e 1040 -c 1 -i 37 -a 1 -x {0.0 1.0 -1 ------- null}
r -t 0.25712 -s 0 -d 1 -p tcp -e 1040 -c 1 -i 36 -a 1 -x {0.0 1.0 10 ------- null}
+ -t 0.25712 -s 1 -d 0 -p ack -e 40 -c 1 -i 38 -a 1 -x {1.0 0.0 11 ------- null}
- -t 0.25712 -s 1 -d 0 -p ack -e 40 -c 1 -i 38 -a 1 -x {1.0 0.0 11 ------- null}
h -t 0.25712 -s 1 -d 0 -p ack -e 40 -c 1 -i 38 -a 1 -x {1.0 0.0 -1 ------- null}
r -t 0.26544 -s 0 -d 1 -p tcp -e 1040 -c 1 -i 37 -a 1 -x {0.0 1.0 11 ------- null}
+ -t 0.26544 -s 1 -d 0 -p ack -e 40 -c 1 -i 39 -a 1 -x {1.0 0.0 11 ------- null}
- -t 0.26544 -s 1 -d 0 -p ack -e 40 -c 1 -i 39 -a 1 -x {1.0 0.0 11 ------- null}
h -t 0.26544 -s 1 -d 0 -p ack -e 40 -c 1 -i 39 -a 1 -x {1.0 0.0 -1 ------- null}
r -t 0.26544 -s 1 -d 0 -p ack -e 40 -c 1 -i 38 -a 1 -x {1.0 0.0 11 ------- null}
+ -t 0.26544 -s 0 -d 1 -p tcp -e 1040 -c 1 -i 40 -a 1 -x {0.0 1.0 12 ------- null}
- -t 0.26544 -s 0 -d 1 -p tcp -e 1040 -c 1 -i 40 -a 1 -x {0.0 1.0 12 ------- null}
h -t 0.26544 -s 0 -d 1 -p tcp -e 1040 -c 1 -i 40 -a 1 -x {0.0 1.0 -1 ------- null}
+ -t 0.26544 -s 0 -d 1 -p tcp -e 1040 -c 1 -i 41 -a 1 -x {0.0 1.0 13 ------- null}
+ -t 0.26544 -s 0 -d 1 -p tcp -e 1040 -c 1 -i 42 -a 1 -x {0.0 1.0 14 ------- null}
r -t 0.27376 -s 1 -d 0 -p ack -e 40 -c 1 -i 39 -a 1 -x {1.0 0.0 11 ------- null}
+ -t 0.27376 -s 0 -d 1 -p tcp -e 1040 -c 1 -i 43 -a 1 -x {0.0 1.0 15 ------- null}
d -t 0.27376 -s 0 -d 1 -p tcp -e 1040 -c 1 -i 43 -a 1 -x {0.0 1.0 15 ------- null}
- -t 0.27376 -s 0 -d 1 -p tcp -e 1040 -c 1 -i 41 -a 1 -x {0.0 1.0 13 ------- null}
h -t 0.27376 -s 0 -d 1 -p tcp -e 1040 -c 1 -i 41 -a 1 -x {0.0 1.0 -1 ------- null}
r -t 0.28176 -s 0 -d 1 -p tcp -e 1040 -c 1 -i 40 -a 1 -x {0.0 1.0 12 ------- null}
+ -t 0.28176 -s 1 -d 0 -p ack -e 40 -c 1 -i 44 -a 1 -x {1.0 0.0 14 ------- null}
- -t 0.28176 -s 1 -d 0 -p ack -e 40 -c 1 -i 44 -a 1 -x {1.0 0.0 14 ------- null}
h -t 0.28176 -s 1 -d 0 -p ack -e 40 -c 1 -i 44 -a 1 -x {1.0 0.0 -1 ------- null}
- -t 0.28208 -s 0 -d 1 -p tcp -e 1040 -c 1 -i 42 -a 1 -x {0.0 1.0 14 ------- null}
h -t 0.28208 -s 0 -d 1 -p tcp -e 1040 -c 1 -i 42 -a 1 -x {0.0 1.0 -1 ------- null}
- -t 0.2888 -s 2 -d 1 -p tcp -e 1040 -c 2 -i 33 -a 2 -x {2.0 1.1 3 ------- null}
h -t 0.2888 -s 2 -d 1 -p tcp -e 1040 -c 2 -i 33 -a 2 -x {2.0 1.1 -1 ------- null}
r -t 0.29008 -s 0 -d 1 -p tcp -e 1040 -c 1 -i 41 -a 1 -x {0.0 1.0 13 ------- null}
+ -t 0.29008 -s 1 -d 0 -p ack -e 40 -c 1 -i 45 -a 1 -x {1.0 0.0 14 ------- null}
- -t 0.29008 -s 1 -d 0 -p ack -e 40 -c 1 -i 45 -a 1 -x {1.0 0.0 14 ------- null}
h -t 0.29008 -s 1 -d 0 -p ack -e 40 -c 1 -i 45 -a 1 -x {1.0 0.0 -1 ------- null}
r -t 0.29008 -s 1 -d 0 -p ack -e 40 -c 1 -i 44 -a 1 -x {1.0 0.0 14 ------- null}
+ -t 0.29008 -s 0 -d 1 -p tcp -e 1040 -c 1 -i 46 -a 1 -x {0.0 1.0 16 ------- null}
+ -t 0.29008 -s 0 -d 1 -p tcp -e 1040 -c 1 -i 47 -a 1 -x {0.0 1.0 17 ------- null}
- -t 0.2904 -s 0 -d 1 -p tcp -e 1040 -c 1 -i 46 -a 1 -x {0.0 1.0 16 ------- null}
h -t 0.2904 -s 0 -d 1 -p tcp -e 1040 -c 1 -i 46 -a 1 -x {0.0 1.0 -1 ------- null}
r -t 0.2968 -s 2 -d 1 -p tcp -e 1040 -c 2 -i 7 -a 2 -x {2.0 1.1 2 ------- null}
+ -t 0.2968 -s 1 -d 2 -p ack -e 40 -c 2 -i 48 -a 2 -x {1.1 2.0 2 ------- null}
- -t 0.2968 -s 1 -d 2 -p ack -e 40 -c 2 -i 48 -a 2 -x {1.1 2.0 2 ------- null}
h -t 0.2968 -s 1 -d 2 -p ack -e 40 -c 2 -i 48 -a 2 -x {1.1 2.0 -1 ------- null}
r -t 0.2984 -s 0 -d 1 -p tcp -e 1040 -c 1 -i 42 -a 1 -x {0.0 1.0 14 ------- null}
+ -t 0.2984 -s 1 -d 0 -p ack -e 40 -c 1 -i 49 -a 1 -x {1.0 0.0 14 ------- null}
- -t 0.2984 -s 1 -d 0 -p ack -e 40 -c 1 -i 49 -a 1 -x {1.0 0.0 14 ------- null}
h -t 0.2984 -s 1 -d 0 -p ack -e 40 -c 1 -i 49 -a 1 -x {1.0 0.0 -1 ------- null}
r -t 0.2984 -s 1 -d 0 -p ack -e 40 -c 1 -i 45 -a 1 -x {1.0 0.0 14 ------- null}
+ -t 0.2984 -s 0 -d 1 -p tcp -e 1040 -c 1 -i 50 -a 1 -x {0.0 1.0 18 ------- null}
- -t 0.29872 -s 0 -d 1 -p tcp -e 1040 -c 1 -i 47 -a 1 -x {0.0 1.0 17 ------- null}
h -t 0.29872 -s 0 -d 1 -p tcp -e 1040 -c 1 -i 47 -a 1 -x {0.0 1.0 -1 ------- null}
r -t 0.30672 -s 0 -d 1 -p tcp -e 1040 -c 1 -i 46 -a 1 -x {0.0 1.0 16 ------- null}
+ -t 0.30672 -s 1 -d 0 -p ack -e 40 -c 1 -i 51 -a 1 -x {1.0 0.0 14 ------- null}
- -t 0.30672 -s 1 -d 0 -p ack -e 40 -c 1 -i 51 -a 1 -x {1.0 0.0 14 ------- null}
h -t 0.30672 -s 1 -d 0 -p ack -e 40 -c 1 -i 51 -a 1 -x {1.0 0.0 -1 ------- null}
r -t 0.30672 -s 1 -d 0 -p ack -e 40 -c 1 -i 49 -a 1 -x {1.0 0.0 14 ------- null}
+ -t 0.30672 -s 0 -d 1 -p tcp -e 1040 -c 1 -i 52 -a 1 -x {0.0 1.0 19 ------- null}
- -t 0.30704 -s 0 -d 1 -p tcp -e 1040 -c 1 -i 50 -a 1 -x {0.0 1.0 18 ------- null}
h -t 0.30704 -s 0 -d 1 -p tcp -e 1040 -c 1 -i 50 -a 1 -x {0.0 1.0 -1 ------- null}
r -t 0.308 -s 1 -d 2 -p ack -e 40 -c 2 -i 48 -a 2 -x {1.1 2.0 2 ------- null}
+ -t 0.308 -s 2 -d 1 -p tcp -e 1040 -c 2 -i 53 -a 2 -x {2.0 1.1 5 ------- null}
+ -t 0.308 -s 2 -d 1 -p tcp -e 1040 -c 2 -i 54 -a 2 -x {2.0 1.1 6 ------- null}
d -t 0.308 -s 2 -d 1 -p tcp -e 1040 -c 2 -i 54 -a 2 -x {2.0 1.1 6 ------- null}
r -t 0.31504 -s 0 -d 1 -p tcp -e 1040 -c 1 -i 47 -a 1 -x {0.0 1.0 17 ------- null}
+ -t 0.31504 -s 1 -d 0 -p ack -e 40 -c 1 -i 55 -a 1 -x {1.0 0.0 14 ------- null}
- -t 0.31504 -s 1 -d 0 -p ack -e 40 -c 1 -i 55 -a 1 -x {1.0 0.0 14 ------- null}
h -t 0.31504 -s 1 -d 0 -p ack -e 40 -c 1 -i 55 -a 1 -x {1.0 0.0 -1 ------- null}
r -t 0.31504 -s 1 -d 0 -p ack -e 40 -c 1 -i 51 -a 1 -x {1.0 0.0 14 ------- null}
- -t 0.31536 -s 0 -d 1 -p tcp -e 1040 -c 1 -i 52 -a 1 -x {0.0 1.0 19 ------- null}
h -t 0.31536 -s 0 -d 1 -p tcp -e 1040 -c 1 -i 52 -a 1 -x {0.0 1.0 -1 ------- null}
r -t 0.32336 -s 0 -d 1 -p tcp -e 1040 -c 1 -i 50 -a 1 -x {0.0 1.0 18 ------- null}
+ -t 0.32336 -s 1 -d 0 -p ack -e 40 -c 1 -i 56 -a 1 -x {1.0 0.0 14 ------- null}
- -t 0.32336 -s 1 -d 0 -p ack -e 40 -c 1 -i 56 -a 1 -x {1.0 0.0 14 ------- null}
h -t 0.32336 -s 1 -d 0 -p ack -e 40 -c 1 -i 56 -a 1 -x {1.0 0.0 -1 ------- null}
r -t 0.32336 -s 1 -d 0 -p ack -e 40 -c 1 -i 55 -a 1 -x {1.0 0.0 14 ------- null}
r -t 0.33168 -s 0 -d 1 -p tcp -e 1040 -c 1 -i 52 -a 1 -x {0.0 1.0 19 ------- null}
+ -t 0.33168 -s 1 -d 0 -p ack -e 40 -c 1 -i 57 -a 1 -x {1.0 0.0 14 ------- null}
- -t 0.33168 -s 1 -d 0 -p ack -e 40 -c 1 -i 57 -a 1 -x {1.0 0.0 14 ------- null}
h -t 0.33168 -s 1 -d 0 -p ack -e 40 -c 1 -i 57 -a 1 -x {1.0 0.0 -1 ------- null}
r -t 0.33168 -s 1 -d 0 -p ack -e 40 -c 1 -i 56 -a 1 -x {1.0 0.0 14 ------- null}
r -t 0.34 -s 1 -d 0 -p ack -e 40 -c 1 -i 57 -a 1 -x {1.0 0.0 14 ------- null}
- -t 0.372 -s 2 -d 1 -p tcp -e 1040 -c 2 -i 34 -a 2 -x {2.0 1.1 4 ------- null}
h -t 0.372 -s 2 -d 1 -p tcp -e 1040 -c 2 -i 34 -a 2 -x {2.0 1.1 -1 ------- null}
r -t 0.38 -s 2 -d 1 -p tcp -e 1040 -c 2 -i 33 -a 2 -x {2.0 1.1 3 ------- null}
+ -t 0.38 -s 1 -d 2 -p ack -e 40 -c 2 -i 58 -a 2 -x {1.1 2.0 3 ------- null}
- -t 0.38 -s 1 -d 2 -p ack -e 40 -c 2 -i 58 -a 2 -x {1.1 2.0 3 ------- null}
h -t 0.38 -s 1 -d 2 -p ack -e 40 -c 2 -i 58 -a 2 -x {1.1 2.0 -1 ------- null}
r -t 0.3912 -s 1 -d 2 -p ack -e 40 -c 2 -i 58 -a 2 -x {1.1 2.0 3 ------- null}
+ -t 0.3912 -s 2 -d 1 -p tcp -e 1040 -c 2 -i 59 -a 2 -x {2.0 1.1 7 ------- null}
+ -t 0.3912 -s 2 -d 1 -p tcp -e 1040 -c 2 -i 60 -a 2 -x {2.0 1.1 8 ------- null}
d -t 0.3912 -s 2 -d 1 -p tcp -e 1040 -c 2 -i 60 -a 2 -x {2.0 1.1 8 ------- null}
- -t 0.4552 -s 2 -d 1 -p tcp -e 1040 -c 2 -i 53 -a 2 -x {2.0 1.1 5 ------- null}
h -t 0.4552 -s 2 -d 1 -p tcp -e 1040 -c 2 -i 53 -a 2 -x {2.0 1.1 -1 ------- null}
r -t 0.4632 -s 2 -d 1 -p tcp -e 1040 -c 2 -i 34 -a 2 -x {2.0 1.1 4 ------- null}
+ -t 0.4632 -s 1 -d 2 -p ack -e 40 -c 2 -i 61 -a 2 -x {1.1 2.0 4 ------- null}
- -t 0.4632 -s 1 -d 2 -p ack -e 40 -c 2 -i 61 -a 2 -x {1.1 2.0 4 ------- null}
h -t 0.4632 -s 1 -d 2 -p ack -e 40 -c 2 -i 61 -a 2 -x {1.1 2.0 -1 ------- null}
r -t 0.4744 -s 1 -d 2 -p ack -e 40 -c 2 -i 61 -a 2 -x {1.1 2.0 4 ------- null}
+ -t 0.4744 -s 2 -d 1 -p tcp -e 1040 -c 2 -i 62 -a 2 -x {2.0 1.1 9 ------- null}
+ -t 0.4744 -s 2 -d 1 -p tcp -e 1040 -c 2 -i 63 -a 2 -x {2.0 1.1 10 ------- null}
d -t 0.4744 -s 2 -d 1 -p tcp -e 1040 -c 2 -i 63 -a 2 -x {2.0 1.1 10 ------- null}
+ -t 0.49008 -s 0 -d 1 -p tcp -e 1040 -c 1 -i 64 -a 1 -x {0.0 1.0 15 ---A--- null}
- -t 0.49008 -s 0 -d 1 -p tcp -e 1040 -c 1 -i 64 -a 1 -x {0.0 1.0 15 ---A--- null}
h -t 0.49008 -s 0 -d 1 -p tcp -e 1040 -c 1 -i 64 -a 1 -x {0.0 1.0 -1 ---A--- null}
r -t 0.5064 -s 0 -d 1 -p tcp -e 1040 -c 1 -i 64 -a 1 -x {0.0 1.0 15 ---A--- null}
+ -t 0.5064 -s 1 -d 0 -p ack -e 40 -c 1 -i 65 -a 1 -x {1.0 0.0 19 ------- null}
- -t 0.5064 -s 1 -d 0 -p ack -e 40 -c 1 -i 65 -a 1 -x {1.0 0.0 19 ------- null}
h -t 0.5064 -s 1 -d 0 -p ack -e 40 -c 1 -i 65 -a 1 -x {1.0 0.0 -1 ------- null}
r -t 0.51472 -s 1 -d 0 -p ack -e 40 -c 1 -i 65 -a 1 -x {1.0 0.0 19 ------- null}
+ -t 0.51472 -s 0 -d 1 -p tcp -e 1040 -c 1 -i 66 -a 1 -x {0.0 1.0 20 ------- null}
- -t 0.51472 -s 0 -d 1 -p tcp -e 1040 -c 1 -i 66 -a 1 -x {0.0 1.0 20 ------- null}
h -t 0.51472 -s 0 -d 1 -p tcp -e 1040 -c 1 -i 66 -a 1 -x {0.0 1.0 -1 ------- null}
+ -t 0.51472 -s 0 -d 1 -p tcp -e 1040 -c 1 -i 67 -a 1 -x {0.0 1.0 21 ------- null}
- -t 0.52304 -s 0 -d 1 -p tcp -e 1040 -c 1 -i 67 -a 1 -x {0.0 1.0 21 ------- null}
h -t 0.52304 -s 0 -d 1 -p tcp -e 1040 -c 1 -i 67 -a 1 -x {0.0 1.0 -1 ------- null}
r -t 0.53104 -s 0 -d 1 -p tcp -e 1040 -c 1 -i 66 -a 1 -x {0.0 1.0 20 ------- null}
+ -t 0.53104 -s 1 -d 0 -p ack -e 40 -c 1 -i 68 -a 1 -x {1.0 0.0 20 ------- null}
- -t 0.53104 -s 1 -d 0 -p ack -e 40 -c 1 -i 68 -a 1 -x {1.0 0.0 20 ------- null}
h -t 0.53104 -s 1 -d 0 -p ack -e 40 -c 1 -i 68 -a 1 -x {1.0 0.0 -1 ------- null}
- -t 0.5384 -s 2 -d 1 -p tcp -e 1040 -c 2 -i 59 -a 2 -x {2.0 1.1 7 ------- null}
h -t 0.5384 -s 2 -d 1 -p tcp -e 1040 -c 2 -i 59 -a 2 -x {2.0 1.1 -1 ------- null}
r -t 0.53936 -s 0 -d 1 -p tcp -e 1040 -c 1 -i 67 -a 1 -x {0.0 1.0 21 ------- null}
+ -t 0.53936 -s 1 -d 0 -p ack -e 40 -c 1 -i 69 -a 1 -x {1.0 0.0 21 ------- null}
- -t 0.53936 -s 1 -d 0 -p ack -e 40 -c 1 -i 69 -a 1 -x {1.0 0.0 21 ------- null}
h -t 0.53936 -s 1 -d 0 -p ack -e 40 -c 1 -i 69 -a 1 -x {1.0 0.0 -1 ------- null}
r -t 0.53936 -s 1 -d 0 -p ack -e 40 -c 1 -i 68 -a 1 -x {1.0 0.0 20 ------- null}
+ -t 0.53936 -s 0 -d 1 -p tcp -e 1040 -c 1 -i 70 -a 1 -x {0.0 1.0 22 ------- null}
- -t 0.53936 -s 0 -d 1 -p tcp -e 1040 -c 1 -i 70 -a 1 -x {0.0 1.0 22 ------- null}
h -t 0.53936 -s 0 -d 1 -p tcp -e 1040 -c 1 -i 70 -a 1 -x {0.0 1.0 -1 ------- null}
r -t 0.5464 -s 2 -d 1 -p tcp -e 1040 -c 2 -i 53 -a 2 -x {2.0 1.1 5 ------- null}
+ -t 0.5464 -s 1 -d 2 -p ack -e 40 -c 2 -i 71 -a 2 -x {1.1 2.0 5 ------- null}
- -t 0.5464 -s 1 -d 2 -p ack -e 40 -c 2 -i 71 -a 2 -x {1.1 2.0 5 ------- null}
h -t 0.5464 -s 1 -d 2 -p ack -e 40 -c 2 -i 71 -a 2 -x {1.1 2.0 -1 ------- null}
r -t 0.54768 -s 1 -d 0 -p ack -e 40 -c 1 -i 69 -a 1 -x {1.0 0.0 21 ------- null}
+ -t 0.54768 -s 0 -d 1 -p tcp -e 1040 -c 1 -i 72 -a 1 -x {0.0 1.0 23 ------- null}
- -t 0.54768 -s 0 -d 1 -p tcp -e 1040 -c 1 -i 72 -a 1 -x {0.0 1.0 23 ------- null}
h -t 0.54768 -s 0 -d 1 -p tcp -e 1040 -c 1 -i 72 -a 1 -x {0.0 1.0 -1 ------- null}
r -t 0.55568 -s 0 -d 1 -p tcp -e 1040 -c 1 -i 70 -a 1 -x {0.0 1.0 22 ------- null}
+ -t 0.55568 -s 1 -d 0 -p ack -e 40 -c 1 -i 73 -a 1 -x {1.0 0.0 22 ------- null}
- -t 0.55568 -s 1 -d 0 -p ack -e 40 -c 1 -i 73 -a 1 -x {1.0 0.0 22 ------- null}
h -t 0.55568 -s 1 -d 0 -p ack -e 40 -c 1 -i 73 -a 1 -x {1.0 0.0 -1 ------- null}
r -t 0.5576 -s 1 -d 2 -p ack -e 40 -c 2 -i 71 -a 2 -x {1.1 2.0 5 ------- null}
+ -t 0.5576 -s 2 -d 1 -p tcp -e 1040 -c 2 -i 74 -a 2 -x {2.0 1.1 11 ------- null}
+ -t 0.5576 -s 2 -d 1 -p tcp -e 1040 -c 2 -i 75 -a 2 -x {2.0 1.1 12 ------- null}
d -t 0.5576 -s 2 -d 1 -p tcp -e 1040 -c 2 -i 75 -a 2 -x {2.0 1.1 12 ------- null}
r -t 0.564 -s 0 -d 1 -p tcp -e 1040 -c 1 -i 72 -a 1 -x {0.0 1.0 23 ------- null}
+ -t 0.564 -s 1 -d 0 -p ack -e 40 -c 1 -i 76 -a 1 -x {1.0 0.0 23 ------- null}
- -t 0.564 -s 1 -d 0 -p ack -e 40 -c 1 -i 76 -a 1 -x {1.0 0.0 23 ------- null}
h -t 0.564 -s 1 -d 0 -p ack -e 40 -c 1 -i 76 -a 1 -x {1.0 0.0 -1 ------- null}
r -t 0.564 -s 1 -d 0 -p ack -e 40 -c 1 -i 73 -a 1 -x {1.0 0.0 22 ------- null}
+ -t 0.564 -s 0 -d 1 -p tcp -e 1040 -c 1 -i 77 -a 1 -x {0.0 1.0 24 ------- null}
- -t 0.564 -s 0 -d 1 -p tcp -e 1040 -c 1 -i 77 -a 1 -x {0.0 1.0 24 ------- null}
h -t 0.564 -s 0 -d 1 -p tcp -e 1040 -c 1 -i 77 -a 1 -x {0.0 1.0 -1 ------- null}
+ -t 0.564 -s 0 -d 1 -p tcp -e 1040 -c 1 -i 78 -a 1 -x {0.0 1.0 25 ------- null}
r -t 0.57232 -s 1 -d 0 -p ack -e 40 -c 1 -i 76 -a 1 -x {1.0 0.0 23 ------- null}
+ -t 0.57232 -s 0 -d 1 -p tcp -e 1040 -c 1 -i 79 -a 1 -x {0.0 1.0 26 ------- null}
- -t 0.57232 -s 0 -d 1 -p tcp -e 1040 -c 1 -i 78 -a 1 -x {0.0 1.0 25 ------- null}
h -t 0.57232 -s 0 -d 1 -p tcp -e 1040 -c 1 -i 78 -a 1 -x {0.0 1.0 -1 ------- null}
r -t 0.58032 -s 0 -d 1 -p tcp -e 1040 -c 1 -i 77 -a 1 -x {0.0 1.0 24 ------- null}
+ -t 0.58032 -s 1 -d 0 -p ack -e 40 -c 1 -i 80 -a 1 -x {1.0 0.0 24 ------- null}
- -t 0.58032 -s 1 -d 0 -p ack -e 40 -c 1 -i 80 -a 1 -x {1.0 0.0 24 ------- null}
h -t 0.58032 -s 1 -d 0 -p ack -e 40 -c 1 -i 80 -a 1 -x {1.0 0.0 -1 ------- null}
- -t 0.58064 -s 0 -d 1 -p tcp -e 1040 -c 1 -i 79 -a 1 -x {0.0 1.0 26 ------- null}
h -t 0.58064 -s 0 -d 1 -p tcp -e 1040 -c 1 -i 79 -a 1 -x {0.0 1.0 -1 ------- null}
r -t 0.58864 -s 0 -d 1 -p tcp -e 1040 -c 1 -i 78 -a 1 -x {0.0 1.0 25 ------- null}
+ -t 0.58864 -s 1 -d 0 -p ack -e 40 -c 1 -i 81 -a 1 -x {1.0 0.0 25 ------- null}
- -t 0.58864 -s 1 -d 0 -p ack -e 40 -c 1 -i 81 -a 1 -x {1.0 0.0 25 ------- null}
h -t 0.58864 -s 1 -d 0 -p ack -e 40 -c 1 -i 81 -a 1 -x {1.0 0.0 -1 ------- null}
r -t 0.58864 -s 1 -d 0 -p ack -e 40 -c 1 -i 80 -a 1 -x {1.0 0.0 24 ------- null}
+ -t 0.58864 -s 0 -d 1 -p tcp -e 1040 -c 1 -i 82 -a 1 -x {0.0 1.0 27 ------- null}
- -t 0.58896 -s 0 -d 1 -p tcp -e 1040 -c 1 -i 82 -a 1 -x {0.0 1.0 27 ------- null}
h -t 0.58896 -s 0 -d 1 -p tcp -e 1040 -c 1 -i 82 -a 1 -x {0.0 1.0 -1 ------- null}
r -t 0.59696 -s 0 -d 1 -p tcp -e 1040 -c 1 -i 79 -a 1 -x {0.0 1.0 26 ------- null}
+ -t 0.59696 -s 1 -d 0 -p ack -e 40 -c 1 -i 83 -a 1 -x {1.0 0.0 26 ------- null}
- -t 0.59696 -s 1 -d 0 -p ack -e 40 -c 1 -i 83 -a 1 -x {1.0 0.0 26 ------- null}
h -t 0.59696 -s 1 -d 0 -p ack -e 40 -c 1 -i 83 -a 1 -x {1.0 0.0 -1 ------- null}
r -t 0.59696 -s 1 -d 0 -p ack -e 40 -c 1 -i 81 -a 1 -x {1.0 0.0 25 ------- null}
+ -t 0.59696 -s 0 -d 1 -p tcp -e 1040 -c 1 -i 84 -a 1 -x {0.0 1.0 28 ------- null}
+ -t 0.59696 -s 0 -d 1 -p tcp -e 1040 -c 1 -i 85 -a 1 -x {0.0 1.0 29 ------- null}
- -t 0.59728 -s 0 -d 1 -p tcp -e 1040 -c 1 -i 84 -a 1 -x {0.0 1.0 28 ------- null}
h -t 0.59728 -s 0 -d 1 -p tcp -e 1040 -c 1 -i 84 -a 1 -x {0.0 1.0 -1 ------- null}
r -t 0.60528 -s 0 -d 1 -p tcp -e 1040 -c 1 -i 82 -a 1 -x {0.0 1.0 27 ------- null}
+ -t 0.60528 -s 1 -d 0 -p ack -e 40 -c 1 -i 86 -a 1 -x {1.0 0.0 27 ------- null}
- -t 0.60528 -s 1 -d 0 -p ack -e 40 -c 1 -i 86 -a 1 -x {1.0 0.0 27 ------- null}
h -t 0.60528 -s 1 -d 0 -p ack -e 40 -c 1 -i 86 -a 1 -x {1.0 0.0 -1 ------- null}
r -t 0.60528 -s 1 -d 0 -p ack -e 40 -c 1 -i 83 -a 1 -x {1.0 0.0 26 ------- null}
+ -t 0.60528 -s 0 -d 1 -p tcp -e 1040 -c 1 -i 87 -a 1 -x {0.0 1.0 30 ------- null}
- -t 0.6056 -s 0 -d 1 -p tcp -e 1040 -c 1 -i 85 -a 1 -x {0.0 1.0 29 ------- null}
h -t 0.6056 -s 0 -d 1 -p tcp -e 1040 -c 1 -i 85 -a 1 -x {0.0 1.0 -1 ------- null}
r -t 0.6136 -s 0 -d 1 -p tcp -e 1040 -c 1 -i 84 -a 1 -x {0.0 1.0 28 ------- null}
+ -t 0.6136 -s 1 -d 0 -p ack -e 40 -c 1 -i 88 -a 1 -x {1.0 0.0 28 ------- null}
- -t 0.6136 -s 1 -d 0 -p ack -e 40 -c 1 -i 88 -a 1 -x {1.0 0.0 28 ------- null}
h -t 0.6136 -s 1 -d 0 -p ack -e 40 -c 1 -i 88 -a 1 -x {1.0 0.0 -1 ------- null}
r -t 0.6136 -s 1 -d 0 -p ack -e 40 -c 1 -i 86 -a 1 -x {1.0 0.0 27 ------- null}
+ -t 0.6136 -s 0 -d 1 -p tcp -e 1040 -c 1 -i 89 -a 1 -x {0.0 1.0 31 ------- null}
- -t 0.61392 -s 0 -d 1 -p tcp -e 1040 -c 1 -i 87 -a 1 -x {0.0 1.0 30 ------- null}
h -t 0.61392 -s 0 -d 1 -p tcp -e 1040 -c 1 -i 87 -a 1 -x {0.0 1.0 -1 ------- null}
- -t 0.6216 -s 2 -d 1 -p tcp -e 1040 -c 2 -i 62 -a 2 -x {2.0 1.1 9 ------- null}
h -t 0.6216 -s 2 -d 1 -p tcp -e 1040 -c 2 -i 62 -a 2 -x {2.0 1.1 -1 ------- null}
r -t 0.62192 -s 0 -d 1 -p tcp -e 1040 -c 1 -i 85 -a 1 -x {0.0 1.0 29 ------- null}
+ -t 0.62192 -s 1 -d 0 -p ack -e 40 -c 1 -i 90 -a 1 -x {1.0 0.0 29 ------- null}
- -t 0.62192 -s 1 -d 0 -p ack -e 40 -c 1 -i 90 -a 1 -x {1.0 0.0 29 ------- null}
h -t 0.62192 -s 1 -d 0 -p ack -e 40 -c 1 -i 90 -a 1 -x {1.0 0.0 -1 ------- null}
r -t 0.62192 -s 1 -d 0 -p ack -e 40 -c 1 -i 88 -a 1 -x {1.0 0.0 28 ------- null}
+ -t 0.62192 -s 0 -d 1 -p tcp -e 1040 -c 1 -i 91 -a 1 -x {0.0 1.0 32 ------- null}
- -t 0.62224 -s 0 -d 1 -p tcp -e 1040 -c 1 -i 89 -a 1 -x {0.0 1.0 31 ------- null}
h -t 0.62224 -s 0 -d 1 -p tcp -e 1040 -c 1 -i 89 -a 1 -x {0.0 1.0 -1 ------- null}
r -t 0.6296 -s 2 -d 1 -p tcp -e 1040 -c 2 -i 59 -a 2 -x {2.0 1.1 7 ------- null}
+ -t 0.6296 -s 1 -d 2 -p ack -e 40 -c 2 -i 92 -a 2 -x {1.1 2.0 5 ------- null}
- -t 0.6296 -s 1 -d 2 -p ack -e 40 -c 2 -i 92 -a 2 -x {1.1 2.0 5 ------- null}
h -t 0.6296 -s 1 -d 2 -p ack -e 40 -c 2 -i 92 -a 2 -x {1.1 2.0 -1 ------- null}
r -t 0.63024 -s 0 -d 1 -p tcp -e 1040 -c 1 -i 87 -a 1 -x {0.0 1.0 30 ------- null}
+ -t 0.63024 -s 1 -d 0 -p ack -e 40 -c 1 -i 93 -a 1 -x {1.0 0.0 30 ------- null}
- -t 0.63024 -s 1 -d 0 -p ack -e 40 -c 1 -i 93 -a 1 -x {1.0 0.0 30 ------- null}
h -t 0.63024 -s 1 -d 0 -p ack -e 40 -c 1 -i 93 -a 1 -x {1.0 0.0 -1 ------- null}
r -t 0.63024 -s 1 -d 0 -p ack -e 40 -c 1 -i 90 -a 1 -x {1.0 0.0 29 ------- null}
+ -t 0.63024 -s 0 -d 1 -p tcp -e 1040 -c 1 -i 94 -a 1 -x {0.0 1.0 33 ------- null}
- -t 0.63056 -s 0 -d 1 -p tcp -e 1040 -c 1 -i 91 -a 1 -x {0.0 1.0 32 ------- null}
h -t 0.63056 -s 0 -d 1 -p tcp -e 1040 -c 1 -i 91 -a 1 -x {0.0 1.0 -1 ------- null}
r -t 0.63856 -s 0 -d 1 -p tcp -e 1040 -c 1 -i 89 -a 1 -x {0.0 1.0 31 ------- null}
+ -t 0.63856 -s 1 -d 0 -p ack -e 40 -c 1 -i 95 -a 1 -x {1.0 0.0 31 ------- null}
- -t 0.63856 -s 1 -d 0 -p ack -e 40 -c 1 -i 95 -a 1 -x {1.0 0.0 31 ------- null}
h -t 0.63856 -s 1 -d 0 -p ack -e 40 -c 1 -i 95 -a 1 -x {1.0 0.0 -1 ------- null}
r -t 0.63856 -s 1 -d 0 -p ack -e 40 -c 1 -i 93 -a 1 -x {1.0 0.0 30 ------- null}
+ -t 0.63856 -s 0 -d 1 -p tcp -e 1040 -c 1 -i 96 -a 1 -x {0.0 1.0 34 ------- null}
+ -t 0.63856 -s 0 -d 1 -p tcp -e 1040 -c 1 -i 97 -a 1 -x {0.0 1.0 35 ------- null}
d -t 0.63856 -s 0 -d 1 -p tcp -e 1040 -c 1 -i 97 -a 1 -x {0.0 1.0 35 ------- null}
- -t 0.63888 -s 0 -d 1 -p tcp -e 1040 -c 1 -i 94 -a 1 -x {0.0 1.0 33 ------- null}
h -t 0.63888 -s 0 -d 1 -p tcp -e 1040 -c 1 -i 94 -a 1 -x {0.0 1.0 -1 ------- null}
r -t 0.6408 -s 1 -d 2 -p ack -e 40 -c 2 -i 92 -a 2 -x {1.1 2.0 5 ------- null}