+ 0.1 0 1 tcp 40 ------- 1 0.0 1.0 0 0
- 0.1 0 1 tcp 40 ------- 1 0.0 1.0 0 0
+ 0.1 2 1 tcp 40 ------- 2 2.0 1.1 0 1
- 0.1 2 1 tcp 40 ------- 2 2.0 1.1 0 1
r 0.10832 0 1 tcp 40 ------- 1 0.0 1.0 0 0
+ 0.10832 1 0 ack 40 ------- 1 1.0 0.0 0 2
- 0.10832 1 0 ack 40 ------- 1 1.0 0.0 0 2
r 0.1112 2 1 tcp 40 ------- 2 2.0 1.1 0 1
+ 0.1112 1 2 ack 40 ------- 2 1.1 2.0 0 3
- 0.1112 1 2 ack 40 ------- 2 1.1 2.0 0 3
r 0.11664 1 0 ack 40 ------- 1 1.0 0.0 0 2
+ 0.11664 0 1 tcp 1040 ------- 1 0.0 1.0 1 4
- 0.11664 0 1 tcp 1040 ------- 1 0.0 1.0 1 4
+ 0.11664 0 1 tcp 1040 ------- 1 0.0 1.0 2 5
r 0.1224 1 2 ack 40 ------- 2 1.1 2.0 0 3
+ 0.1224 2 1 tcp 1040 ------- 2 2.0 1.1 1 6
- 0.1224 2 1 tcp 1040 ------- 2 2.0 1.1 1 6
+ 0.1224 2 1 tcp 1040 ------- 2 2.0 1.1 2 7
- 0.12496 0 1 tcp 1040 ------- 1 0.0 1.0 2 5
r 0.13296 0 1 tcp 1040 ------- 1 0.0 1.0 1 4
+ 0.13296 1 0 ack 40 ------- 1 1.0 0.0 1 8
- 0.13296 1 0 ack 40 ------- 1 1.0 0.0 1 8
r 0.14128 0 1 tcp 1040 ------- 1 0.0 1.0 2 5
+ 0.14128 1 0 ack 40 ------- 1 1.0 0.0 2 9
- 0.14128 1 0 ack 40 ------- 1 1.0 0.0 2 9
r 0.14128 1 0 ack 40 ------- 1 1.0 0.0 1 8
+ 0.14128 0 1 tcp 1040 ------- 1 0.0 1.0 3 10
- 0.14128 0 1 tcp 1040 ------- 1 0.0 1.0 3 10
+ 0.14128 0 1 tcp 1040 ------- 1 0.0 1.0 4 11
r 0.1496 1 0 ack 40 ------- 1 1.0 0.0 2 9
+ 0.1496 0 1 tcp 1040 ------- 1 0.0 1.0 5 12
+ 0.1496 0 1 tcp 1040 ------- 1 0.0 1.0 6 13
d 0.1496 0 1 tcp 1040 ------- 1 0.0 1.0 6 13
- 0.1496 0 1 tcp 1040 ------- 1 0.0 1.0 4 11
r 0.1576 0 1 tcp 1040 ------- 1 0.0 1.0 3 10
+ 0.1576 1 0 ack 40 ------- 1 1.0 0.0 3 14
- 0.1576 1 0 ack 40 ------- 1 1.0 0.0 3 14
- 0.15792 0 1 tcp 1040 ------- 1 0.0 1.0 5 12
r 0.16592 0 1 tcp 1040 ------- 1 0.0 1.0 4 11
+ 0.16592 1 0 ack 40 ------- 1 1.0 0.0 4 15
- 0.16592 1 0 ack 40 ------- 1 1.0 0.0 4 15
r 0.16592 1 0 ack 40 ------- 1 1.0 0.0 3 14
+ 0.16592 0 1 tcp 1040 ------- 1 0.0 1.0 7 16
+ 0.16592 0 1 tcp 1040 ------- 1 0.0 1.0 8 17
- 0.16624 0 1 tcp 1040 ------- 1 0.0 1.0 7 16
r 0.17424 0 1 tcp 1040 ------- 1 0.0 1.0 5 12
+ 0.17424 1 0 ack 40 ------- 1 1.0 0.0 5 18
- 0.17424 1 0 ack 40 ------- 1 1.0 0.0 5 18
r 0.17424 1 0 ack 40 ------- 1 1.0 0.0 4 15
+ 0.17424 0 1 tcp 1040 ------- 1 0.0 1.0 9 19
+ 0.17424 0 1 tcp 1040 ------- 1 0.0 1.0 10 20
d 0.17424 0 1 tcp 1040 ------- 1 0.0 1.0 10 20
- 0.17456 0 1 tcp 1040 ------- 1 0.0 1.0 8 17
r 0.18256 0 1 tcp 1040 ------- 1 0.0 1.0 7 16
+ 0.18256 1 0 ack 40 ------- 1 1.0 0.0 5 21
- 0.18256 1 0 ack 40 ------- 1 1.0 0.0 5 21
r 0.18256 1 0 ack 40 ------- 1 1.0 0.0 5 18
+ 0.18256 0 1 tcp 1040 ------- 1 0.0 1.0 11 22
+ 0.18256 0 1 tcp 1040 ------- 1 0.0 1.0 12 23
d 0.18256 0 1 tcp 1040 ------- 1 0.0 1.0 12 23
- 0.18288 0 1 tcp 1040 ------- 1 0.0 1.0 9 19
r 0.19088 0 1 tcp 1040 ------- 1 0.0 1.0 8 17
+ 0.19088 1 0 ack 40 ------- 1 1.0 0.0 5 24
- 0.19088 1 0 ack 40 ------- 1 1.0 0.0 5 24
r 0.19088 1 0 ack 40 ------- 1 1.0 0.0 5 21
+ 0.19088 0 1 tcp 1040 ------- 1 0.0 1.0 13 25
- 0.1912 0 1 tcp 1040 ------- 1 0.0 1.0 11 22
r 0.1992 0 1 tcp 1040 ------- 1 0.0 1.0 9 19
+ 0.1992 1 0 ack 40 ------- 1 1.0 0.0 5 26
- 0.1992 1 0 ack 40 ------- 1 1.0 0.0 5 26
r 0.1992 1 0 ack 40 ------- 1 1.0 0.0 5 24
+ 0.1992 0 1 tcp 1040 ------- 1 0.0 1.0 14 27
- 0.19952 0 1 tcp 1040 ------- 1 0.0 1.0 13 25
- 0.2056 2 1 tcp 1040 ------- 2 2.0 1.1 2 7
r 0.20752 0 1 tcp 1040 ------- 1 0.0 1.0 11 22
+ 0.20752 1 0 ack 40 ------- 1 1.0 0.0 5 28
- 0.20752 1 0 ack 40 ------- 1 1.0 0.0 5 28
r 0.20752 1 0 ack 40 ------- 1 1.0 0.0 5 26
+ 0.20752 0 1 tcp 1040 ---A--- 1 0.0 1.0 6 29
- 0.20784 0 1 tcp 1040 ------- 1 0.0 1.0 14 27
r 0.2136 2 1 tcp 1040 ------- 2 2.0 1.1 1 6
+ 0.2136 1 2 ack 40 ------- 2 1.1 2.0 1 30
- 0.2136 1 2 ack 40 ------- 2 1.1 2.0 1 30
r 0.21584 0 1 tcp 1040 ------- 1 0.0 1.0 13 25
+ 0.21584 1 0 ack 40 ------- 1 1.0 0.0 5 31
- 0.21584 1 0 ack 40 ------- 1 1.0 0.0 5 31
r 0.21584 1 0 ack 40 ------- 1 1.0 0.0 5 28
- 0.21616 0 1 tcp 1040 ---A--- 1 0.0 1.0 6 29
r 0.22416 0 1 tcp 1040 ------- 1 0.0 1.0 14 27
+ 0.22416 1 0 ack 40 ------- 1 1.0 0.0 5 32
- 0.22416 1 0 ack 40 ------- 1 1.0 0.0 5 32
r 0.22416 1 0 ack 40 ------- 1 1.0 0.0 5 31
r 0.2248 1 2 ack 40 ------- 2 1.1 2.0 1 30
+ 0.2248 2 1 tcp 1040 ------- 2 2.0 1.1 3 33
+ 0.2248 2 1 tcp 1040 ------- 2 2.0 1.1 4 34
r 0.23248 0 1 tcp 1040 ---A--- 1 0.0 1.0 6 29
+ 0.23248 1 0 ack 40 ------- 1 1.0 0.0 9 35
- 0.23248 1 0 ack 40 ------- 1 1.0 0.0 9 35
r 0.23248 1 0 ack 40 ------- 1 1.0 0.0 5 32
r 0.2408 1 0 ack 40 ------- 1 1.0 0.0 9 35
+ 0.2408 0 1 tcp 1040 ------- 1 0.0 1.0 10 36
- 0.2408 0 1 tcp 1040 ------- 1 0.0 1.0 10 36
+ 0.2408 0 1 tcp 1040 ------- 1 0.0 1.0 11 37
- 0.24912 0 1 tcp 1040 ------- 1 0.0 1.0 11 37
r 0.25712 0 1 tcp 1040 ------- 1 0.0 1.0 10 36
+ 0.25712 1 0 ack 40 ------- 1 1.0 0.0 11 38
- 0.25712 1 0 ack 40 ------- 1 1.0 0.0 11 38
r 0.26544 0 1 tcp 1040 ------- 1 0.0 1.0 11 37
+ 0.26544 1 0 ack 40 ------- 1 1.0 0.0 11 39
- 0.26544 1 0 ack 40 ------- 1 1.0 0.0 11 39
r 0.26544 1 0 ack 40 ------- 1 1.0 0.0 11 38
+ 0.26544 0 1 tcp 1040 ------- 1 0.0 1.0 12 40
- 0.26544 0 1 tcp 1040 ------- 1 0.0 1.0 12 40
+ 0.26544 0 1 tcp 1040 ------- 1 0.0 1.0 13 41
+ 0.26544 0 1 tcp 1040 ------- 1 0.0 1.0 14 42
r 0.27376 1 0 ack 40 ------- 1 1.0 0.0 11 39
+ 0.27376 0 1 tcp 1040 ------- 1 0.0 1.0 15 43
d 0.27376 0 1 tcp 1040 ------- 1 0.0 1.0 15 43
- 0.27376 0 1 tcp 1040 ------- 1 0.0 1.0 13 41
r 0.28176 0 1 tcp 1040 ------- 1 0.0 1.0 12 40
+ 0.28176 1 0 ack 40 ------- 1 1.0 0.0 14 44
- 0.28176 1 0 ack 40 ------- 1 1.0 0.0 14 44
- 0.28208 0 1 tcp 1040 ------- 1 0.0 1.0 14 42
- 0.2888 2 1 tcp 1040 ------- 2 2.0 1.1 3 33
r 0.29008 0 1 tcp 1040 ------- 1 0.0 1.0 13 41
+ 0.29008 1 0 ack 40 ------- 1 1.0 0.0 14 45
- 0.29008 1 0 ack 40 ------- 1 1.0 0.0 14 45
r 0.29008 1 0 ack 40 ------- 1 1.0 0.0 14 44
+ 0.29008 0 1 tcp 1040 ------- 1 0.0 1.0 16 46
+ 0.29008 0 1 tcp 1040 ------- 1 0.0 1.0 17 47
- 0.2904 0 1 tcp 1040 ------- 1 0.0 1.0 16 46
r 0.2968 2 1 tcp 1040 ------- 2 2.0 1.1 2 7
+ 0.2968 1 2 ack 40 ------- 2 1.1 2.0 2 48
- 0.2968 1 2 ack 40 ------- 2 1.1 2.0 2 48
r 0.2984 0 1 tcp 1040 ------- 1 0.0 1.0 14 42
+ 0.2984 1 0 ack 40 ------- 1 1.0 0.0 14 49
- 0.2984 1 0 ack 40 ------- 1 1.0 0.0 14 49
r 0.2984 1 0 ack 40 ------- 1 1.0 0.0 14 45
+ 0.2984 0 1 tcp 1040 ------- 1 0.0 1.0 18 50
- 0.29872 0 1 tcp 1040 ------- 1 0.0 1.0 17 47
r 0.30672 0 1 tcp 1040 ------- 1 0.0 1.0 16 46
+ 0.30672 1 0 ack 40 ------- 1 1.0 0.0 14 51
- 0.30672 1 0 ack 40 ------- 1 1.0 0.0 14 51
r 0.30672 1 0 ack 40 ------- 1 1.0 0.0 14 49
+ 0.30672 0 1 tcp 1040 ------- 1 0.0 1.0 19 52
- 0.30704 0 1 tcp 1040 ------- 1 0.0 1.0 18 50
r 0.308 1 2 ack 40 ------- 2 1.1 2.0 2 48
+ 0.308 2 1 tcp 1040 ------- 2 2.0 1.1 5 53
+ 0.308 2 1 tcp 1040 ------- 2 2.0 1.1 6 54
d 0.308 2 1 tcp 1040 ------- 2 2.0 1.1 6 54
r 0.31504 0 1 tcp 1040 ------- 1 0.0 1.0 17 47
+ 0.31504 1 0 ack 40 ------- 1 1.0 0.0 14 55
- 0.31504 1 0 ack 40 ------- 1 1.0 0.0 14 55
r 0.31504 1 0 ack 40 ------- 1 1.0 0.0 14 51
- 0.31536 0 1 tcp 1040 ------- 1 0.0 1.0 19 52
r 0.32336 0 1 tcp 1040 ------- 1 0.0 1.0 18 50
+ 0.32336 1 0 ack 40 ------- 1 1.0 0.0 14 56
- 0.32336 1 0 ack 40 ------- 1 1.0 0.0 14 56
r 0.32336 1 0 ack 40 ------- 1 1.0 0.0 14 55
r 0.33168 0 1 tcp 1040 ------- 1 0.0 1.0 19 52
+ 0.33168 1 0 ack 40 ------- 1 1.0 0.0 14 57
- 0.33168 1 0 ack 40 ------- 1 1.0 0.0 14 57
r 0.33168 1 0 ack 40 ------- 1 1.0 0.0 14 56
r 0.34 1 0 ack 40 ------- 1 1.0 0.0 14 57
- 0.372 2 1 tcp 1040 ------- 2 2.0 1.1 4 34
r 0.38 2 1 tcp 1040 ------- 2 2.0 1.1 3 33
+ 0.38 1 2 ack 40 ------- 2 1.1 2.0 3 58
- 0.38 1 2 ack 40 ------- 2 1.1 2.0 3 58
r 0.3912 1 2 ack 40 ------- 2 1.1 2.0 3 58
+ 0.3912 2 1 tcp 1040 ------- 2 2.0 1.1 7 59
+ 0.3912 2 1 tcp 1040 ------- 2 2.0 1.1 8 60
d 0.3912 2 1 tcp 1040 ------- 2 2.0 1.1 8 60
- 0.4552 2 1 tcp 1040 ------- 2 2.0 1.1 5 53
r 0.4632 2 1 tcp 1040 ------- 2 2.0 1.1 4 34
+ 0.4632 1 2 ack 40 ------- 2 1.1 2.0 4 61
- 0.4632 1 2 ack 40 ------- 2 1.1 2.0 4 61
r 0.4744 1 2 ack 40 ------- 2 1.1 2.0 4 61
+ 0.4744 2 1 tcp 1040 ------- 2 2.0 1.1 9 62
+ 0.4744 2 1 tcp 1040 ------- 2 2.0 1.1 10 63
d 0.4744 2 1 tcp 1040 ------- 2 2.0 1.1 10 63
+ 0.49008 0 1 tcp 1040 ---A--- 1 0.0 1.0 15 64
- 0.49008 0 1 tcp 1040 ---A--- 1 0.0 1.0 15 64
r 0.5064 0 1 tcp 1040 ---A--- 1 0.0 1.0 15 64
+ 0.5064 1 0 ack 40 ------- 1 1.0 0.0 19 65
- 0.5064 1 0 ack 40 ------- 1 1.0 0.0 19 65
r 0.51472 1 0 ack 40 ------- 1 1.0 0.0 19 65
+ 0.51472 0 1 tcp 1040 ------- 1 0.0 1.0 20 66
- 0.51472 0 1 tcp 1040 ------- 1 0.0 1.0 20 66
+ 0.51472 0 1 tcp 1040 ------- 1 0.0 1.0 21 67
- 0.52304 0 1 tcp 1040 ------- 1 0.0 1.0 21 67
r 0.53104 0 1 tcp 1040 ------- 1 0.0 1.0 20 66
+ 0.53104 1 0 ack 40 ------- 1 1.0 0.0 20 68
- 0.53104 1 0 ack 40 ------- 1 1.0 0.0 20 68
- 0.5384 2 1 tcp 1040 ------- 2 2.0 1.1 7 59
r 0.53936 0 1 tcp 1040 ------- 1 0.0 1.0 21 67
+ 0.53936 1 0 ack 40 ------- 1 1.0 0.0 21 69
- 0.53936 1 0 ack 40 ------- 1 1.0 0.0 21 69
r 0.53936 1 0 ack 40 ------- 1 1.0 0.0 20 68
+ 0.53936 0 1 tcp 1040 ------- 1 0.0 1.0 22 70
- 0.53936 0 1 tcp 1040 ------- 1 0.0 1.0 22 70
r 0.5464 2 1 tcp 1040 ------- 2 2.0 1.1 5 53
+ 0.5464 1 2 ack 40 ------- 2 1.1 2.0 5 71
- 0.5464 1 2 ack 40 ------- 2 1.1 2.0 5 71
r 0.54768 1 0 ack 40 ------- 1 1.0 0.0 21 69
+ 0.54768 0 1 tcp 1040 ------- 1 0.0 1.0 23 72
- 0.54768 0 1 tcp 1040 ------- 1 0.0 1.0 23 72
r 0.55568 0 1 tcp 1040 ------- 1 0.0 1.0 22 70
+ 0.55568 1 0 ack 40 ------- 1 1.0 0.0 22 73
- 0.55568 1 0 ack 40 ------- 1 1.0 0.0 22 73
r 0.5576 1 2 ack 40 ------- 2 1.1 2.0 5 71
+ 0.5576 2 1 tcp 1040 ------- 2 2.0 1.1 11 74
+ 0.5576 2 1 tcp 1040 ------- 2 2.0 1.1 12 75
d 0.5576 2 1 tcp 1040 ------- 2 2.0 1.1 12 75
r 0.564 0 1 tcp 1040 ------- 1 0.0 1.0 23 72
+ 0.564 1 0 ack 40 ------- 1 1.0 0.0 23 76
- 0.564 1 0 ack 40 ------- 1 1.0 0.0 23 76
r 0.564 1 0 ack 40 ------- 1 1.0 0.0 22 73
+ 0.564 0 1 tcp 1040 ------- 1 0.0 1.0 24 77
- 0.564 0 1 tcp 1040 ------- 1 0.0 1.0 24 77
+ 0.564 0 1 tcp 1040 ------- 1 0.0 1.0 25 78
r 0.57232 1 0 ack 40 ------- 1 1.0 0.0 23 76
+ 0.57232 0 1 tcp 1040 ------- 1 0.0 1.0 26 79
- 0.57232 0 1 tcp 1040 ------- 1 0.0 1.0 25 78
r 0.58032 0 1 tcp 1040 ------- 1 0.0 1.0 24 77
+ 0.58032 1 0 ack 40 ------- 1 1.0 0.0 24 80
- 0.58032 1 0 ack 40 ------- 1 1.0 0.0 24 80
- 0.58064 0 1 tcp 1040 ------- 1 0.0 1.0 26 79
r 0.58864 0 1 tcp 1040 ------- 1 0.0 1.0 25 78
+ 0.58864 1 0 ack 40 ------- 1 1.0 0.0 25 81
- 0.58864 1 0 ack 40 ------- 1 1.0 0.0 25 81
r 0.58864 1 0 ack 40 ------- 1 1.0 0.0 24 80
+ 0.58864 0 1 tcp 1040 ------- 1 0.0 1.0 27 82
- 0.58896 0 1 tcp 1040 ------- 1 0.0 1.0 27 82
r 0.59696 0 1 tcp 1040 ------- 1 0.0 1.0 26 79
+ 0.59696 1 0 ack 40 ------- 1 1.0 0.0 26 83
- 0.59696 1 0 ack 40 ------- 1 1.0 0.0 26 83
r 0.59696 1 0 ack 40 ------- 1 1.0 0.0 25 81
+ 0.59696 0 1 tcp 1040 ------- 1 0.0 1.0 28 84
+ 0.59696 0 1 tcp 1040 ------- 1 0.0 1.0 29 85
- 0.59728 0 1 tcp 1040 ------- 1 0.0 1.0 28 84
r 0.60528 0 1 tcp 1040 ------- 1 0.0 1.0 27 82
+ 0.60528 1 0 ack 40 ------- 1 1.0 0.0 27 86
- 0.60528 1 0 ack 40 ------- 1 1.0 0.0 27 86
r 0.60528 1 0 ack 40 ------- 1 1.0 0.0 26 83
+ 0.60528 0 1 tcp 1040 ------- 1 0.0 1.0 30 87
- 0.6056 0 1 tcp 1040 ------- 1 0.0 1.0 29 85
r 0.6136 0 1 tcp 1040 ------- 1 0.0 1.0 28 84
+ 0.6136 1 0 ack 40 ------- 1 1.0 0.0 28 88
- 0.6136 1 0 ack 40 ------- 1 1.0 0.0 28 88
r 0.6136 1 0 ack 40 ------- 1 1.0 0.0 27 86
+ 0.6136 0 1 tcp 1040 ------- 1 0.0 1.0 31 89
- 0.61392 0 1 tcp 1040 ------- 1 0.0 1.0 30 87
- 0.6216 2 1 tcp 1040 ------- 2 2.0 1.1 9 62
r 0.62192 0 1 tcp 1040 ------- 1 0.0 1.0 29 85
+ 0.62192 1 0 ack 40 ------- 1 1.0 0.0 29 90
- 0.62192 1 0 ack 40 ------- 1 1.0 0.0 29 90
r 0.62192 1 0 ack 40 ------- 1 1.0 0.0 28 88
+ 0.62192 0 1 tcp 1040 ------- 1 0.0 1.0 32 91
- 0.62224 0 1 tcp 1040 ------- 1 0.0 1.0 31 89
r 0.6296 2 1 tcp 1040 ------- 2 2.0 1.1 7 59
+ 0.6296 1 2 ack 40 ------- 2 1.1 2.0 5 92
- 0.6296 1 2 ack 40 ------- 2 1.1 2.0 5 92
r 0.63024 0 1 tcp 1040 ------- 1 0.0 1.0 30 87
+ 0.63024 1 0 ack 40 ------- 1 1.0 0.0 30 93
- 0.63024 1 0 ack 40 ------- 1 1.0 0.0 30 93
r 0.63024 1 0 ack 40 ------- 1 1.0 0.0 29 90
+ 0.63024 0 1 tcp 1040 ------- 1 0.0 1.0 33 94
- 0.63056 0 1 tcp 1040 ------- 1 0.0 1.0 32 91
r 0.63856 0 1 tcp 1040 ------- 1 0.0 1.0 31 89
+ 0.63856 1 0 ack 40 ------- 1 1.0 0.0 31 95
- 0.63856 1 0 ack 40 ------- 1 1.0 0.0 31 95
r 0.63856 1 0 ack 40 ------- 1 1.0 0.0 30 93
+ 0.63856 0 1 tcp 1040 ------- 1 0.0 1.0 34 96
+ 0.63856 0 1 tcp 1040 ------- 1 0.0 1.0 35 97
d 0.63856 0 1 tcp 1040 ------- 1 0.0 1.0 35 97
- 0.63888 0 1 tcp 1040 ------- 1 0.0 1.0 33 94
r 0.6408 1 2 ack 40 ------- 2 1.1 2.0 5 92
+ 0.6408 2 1 tcp 1040 ------- 2 2.0 1.1 13 98
r 0.64688 0 1 tcp 1040 ------- 1 0.0 1.0 32 91
+ 0.64688 1 0 ack 40 ------- 1 1.0 0.0 32 99
- 0.64688 1 0 ack 40 ------- 1 1.0 0.0 32 99
r 0.64688 1 0 ack 40 ------- 1 1.0 0.0 31 95
+ 0.64688 0 1 tcp 1040 ------- 1 0.0 1.0 36 100
- 0.6472 0 1 tcp 1040 ------- 1 0.0 1.0 34 96
r 0.6552 0 1 tcp 1040 ------- 1 0.0 1.0 33 94
+ 0.6552 1 0 ack 40 ------- 1 1.0 0.0 33 101
- 0.6552 1 0 ack 40 ------- 1 1.0 0.0 33 101
r 0.6552 1 0 ack 40 ------- 1 1.0 0.0 32 99
+ 0.6552 0 1 tcp 1040 ------- 1 0.0 1.0 37 102
- 0.65552 0 1 tcp 1040 ------- 1 0.0 1.0 36 100
r 0.66352 0 1 tcp 1040 ------- 1 0.0 1.0 34 96
+ 0.66352 1 0 ack 40 ------- 1 1.0 0.0 34 103
- 0.66352 1 0 ack 40 ------- 1 1.0 0.0 34 103
r 0.66352 1 0 ack 40 ------- 1 1.0 0.0 33 101
+ 0.66352 0 1 tcp 1040 ------- 1 0.0 1.0 38 104
- 0.66384 0 1 tcp 1040 ------- 1 0.0 1.0 37 102
r 0.67184 0 1 tcp 1040 ------- 1 0.0 1.0 36 100
+ 0.67184 1 0 ack 40 ------- 1 1.0 0.0 34 105
- 0.67184 1 0 ack 40 ------- 1 1.0 0.0 34 105
r 0.67184 1 0 ack 40 ------- 1 1.0 0.0 34 103
+ 0.67184 0 1 tcp 1040 ------- 1 0.0 1.0 39 106
- 0.67216 0 1 tcp 1040 ------- 1 0.0 1.0 38 104
r 0.68016 0 1 tcp 1040 ------- 1 0.0 1.0 37 102
+ 0.68016 1 0 ack 40 ------- 1 1.0 0.0 34 107
- 0.68016 1 0 ack 40 ------- 1 1.0 0.0 34 107
r 0.68016 1 0 ack 40 ------- 1 1.0 0.0 34 105
+ 0.68016 0 1 tcp 1040 ------- 1 0.0 1.0 40 108
- 0.68048 0 1 tcp 1040 ------- 1 0.0 1.0 39 106
r 0.68848 0 1 tcp 1040 ------- 1 0.0 1.0 38 104
+ 0.68848 1 0 ack 40 ------- 1 1.0 0.0 34 109
- 0.68848 1 0 ack 40 ------- 1 1.0 0.0 34 109
r 0.68848 1 0 ack 40 ------- 1 1.0 0.0 34 107
+ 0.68848 0 1 tcp 1040 ------- 1 0.0 1.0 41 110
- 0.6888 0 1 tcp 1040 ------- 1 0.0 1.0 40 108
r 0.6968 0 1 tcp 1040 ------- 1 0.0 1.0 39 106
+ 0.6968 1 0 ack 40 ------- 1 1.0 0.0 34 111
- 0.6968 1 0 ack 40 ------- 1 1.0 0.0 34 111
r 0.6968 1 0 ack 40 ------- 1 1.0 0.0 34 109
+ 0.6968 0 1 tcp 1040 ---A--- 1 0.0 1.0 35 112
- 0.69712 0 1 tcp 1040 ------- 1 0.0 1.0 41 110
- 0.7048 2 1 tcp 1040 ------- 2 2.0 1.1 11 74
r 0.70512 0 1 tcp 1040 ------- 1 0.0 1.0 40 108
+ 0.70512 1 0 ack 40 ------- 1 1.0 0.0 34 113
- 0.70512 1 0 ack 40 ------- 1 1.0 0.0 34 113
r 0.70512 1 0 ack 40 ------- 1 1.0 0.0 34 111
- 0.70544 0 1 tcp 1040 ---A--- 1 0.0 1.0 35 112
r 0.7128 2 1 tcp 1040 ------- 2 2.0 1.1 9 62
+ 0.7128 1 2 ack 40 ------- 2 1.1 2.0 5 114
- 0.7128 1 2 ack 40 ------- 2 1.1 2.0 5 114
r 0.71344 0 1 tcp 1040 ------- 1 0.0 1.0 41 110
+ 0.71344 1 0 ack 40 ------- 1 1.0 0.0 34 115
- 0.71344 1 0 ack 40 ------- 1 1.0 0.0 34 115
r 0.71344 1 0 ack 40 ------- 1 1.0 0.0 34 113
r 0.72176 0 1 tcp 1040 ---A--- 1 0.0 1.0 35 112
+ 0.72176 1 0 ack 40 ------- 1 1.0 0.0 41 116
- 0.72176 1 0 ack 40 ------- 1 1.0 0.0 41 116
r 0.72176 1 0 ack 40 ------- 1 1.0 0.0 34 115
r 0.724 1 2 ack 40 ------- 2 1.1 2.0 5 114
+ 0.724 2 1 tcp 1040 ------- 2 2.0 1.1 14 117
r 0.73008 1 0 ack 40 ------- 1 1.0 0.0 41 116
+ 0.73008 0 1 tcp 1040 ------- 1 0.0 1.0 42 118
- 0.73008 0 1 tcp 1040 ------- 1 0.0 1.0 42 118
+ 0.73008 0 1 tcp 1040 ------- 1 0.0 1.0 43 119
- 0.7384 0 1 tcp 1040 ------- 1 0.0 1.0 43 119
r 0.7464 0 1 tcp 1040 ------- 1 0.0 1.0 42 118
+ 0.7464 1 0 ack 40 ------- 1 1.0 0.0 42 120
- 0.7464 1 0 ack 40 ------- 1 1.0 0.0 42 120
r 0.75472 0 1 tcp 1040 ------- 1 0.0 1.0 43 119
+ 0.75472 1 0 ack 40 ------- 1 1.0 0.0 43 121
- 0.75472 1 0 ack 40 ------- 1 1.0 0.0 43 121
r 0.75472 1 0 ack 40 ------- 1 1.0 0.0 42 120
+ 0.75472 0 1 tcp 1040 ------- 1 0.0 1.0 44 122
- 0.75472 0 1 tcp 1040 ------- 1 0.0 1.0 44 122
r 0.76304 1 0 ack 40 ------- 1 1.0 0.0 43 121
+ 0.76304 0 1 tcp 1040 ------- 1 0.0 1.0 45 123
- 0.76304 0 1 tcp 1040 ------- 1 0.0 1.0 45 123
r 0.77104 0 1 tcp 1040 ------- 1 0.0 1.0 44 122
+ 0.77104 1 0 ack 40 ------- 1 1.0 0.0 44 124
- 0.77104 1 0 ack 40 ------- 1 1.0 0.0 44 124
r 0.77936 0 1 tcp 1040 ------- 1 0.0 1.0 45 123
+ 0.77936 1 0 ack 40 ------- 1 1.0 0.0 45 125
- 0.77936 1 0 ack 40 ------- 1 1.0 0.0 45 125
r 0.77936 1 0 ack 40 ------- 1 1.0 0.0 44 124
+ 0.77936 0 1 tcp 1040 ------- 1 0.0 1.0 46 126
- 0.77936 0 1 tcp 1040 ------- 1 0.0 1.0 46 126
+ 0.77936 0 1 tcp 1040 ------- 1 0.0 1.0 47 127
r 0.78768 1 0 ack 40 ------- 1 1.0 0.0 45 125
+ 0.78768 0 1 tcp 1040 ------- 1 0.0 1.0 48 128
- 0.78768 0 1 tcp 1040 ------- 1 0.0 1.0 47 127
- 0.788 2 1 tcp 1040 ------- 2 2.0 1.1 13 98
r 0.79568 0 1 tcp 1040 ------- 1 0.0 1.0 46 126
+ 0.79568 1 0 ack 40 ------- 1 1.0 0.0 46 129
- 0.79568 1 0 ack 40 ------- 1 1.0 0.0 46 129
r 0.796 2 1 tcp 1040 ------- 2 2.0 1.1 11 74
+ 0.796 1 2 ack 40 ------- 2 1.1 2.0 5 130
- 0.796 1 2 ack 40 ------- 2 1.1 2.0 5 130
- 0.796 0 1 tcp 1040 ------- 1 0.0 1.0 48 128
r 0.804 0 1 tcp 1040 ------- 1 0.0 1.0 47 127
+ 0.804 1 0 ack 40 ------- 1 1.0 0.0 47 131
- 0.804 1 0 ack 40 ------- 1 1.0 0.0 47 131
r 0.804 1 0 ack 40 ------- 1 1.0 0.0 46 129
+ 0.804 0 1 tcp 1040 ------- 1 0.0 1.0 49 132
- 0.80432 0 1 tcp 1040 ------- 1 0.0 1.0 49 132
r 0.8072 1 2 ack 40 ------- 2 1.1 2.0 5 130
+ 0.8072 2 1 tcp 1040 ---A--- 2 2.0 1.1 6 133
r 0.81232 0 1 tcp 1040 ------- 1 0.0 1.0 48 128
+ 0.81232 1 0 ack 40 ------- 1 1.0 0.0 48 134
- 0.81232 1 0 ack 40 ------- 1 1.0 0.0 48 134
r 0.81232 1 0 ack 40 ------- 1 1.0 0.0 47 131
+ 0.81232 0 1 tcp 1040 ------- 1 0.0 1.0 50 135
+ 0.81232 0 1 tcp 1040 ------- 1 0.0 1.0 51 136
- 0.81264 0 1 tcp 1040 ------- 1 0.0 1.0 50 135
r 0.82064 0 1 tcp 1040 ------- 1 0.0 1.0 49 132
+ 0.82064 1 0 ack 40 ------- 1 1.0 0.0 49 137
- 0.82064 1 0 ack 40 ------- 1 1.0 0.0 49 137
r 0.82064 1 0 ack 40 ------- 1 1.0 0.0 48 134
+ 0.82064 0 1 tcp 1040 ------- 1 0.0 1.0 52 138
- 0.82096 0 1 tcp 1040 ------- 1 0.0 1.0 51 136
r 0.82896 0 1 tcp 1040 ------- 1 0.0 1.0 50 135
+ 0.82896 1 0 ack 40 ------- 1 1.0 0.0 50 139
- 0.82896 1 0 ack 40 ------- 1 1.0 0.0 50 139
r 0.82896 1 0 ack 40 ------- 1 1.0 0.0 49 137
+ 0.82896 0 1 tcp 1040 ------- 1 0.0 1.0 53 140
- 0.82928 0 1 tcp 1040 ------- 1 0.0 1.0 52 138
r 0.83728 0 1 tcp 1040 ------- 1 0.0 1.0 51 136
+ 0.83728 1 0 ack 40 ------- 1 1.0 0.0 51 141
- 0.83728 1 0 ack 40 ------- 1 1.0 0.0 51 141
r 0.83728 1 0 ack 40 ------- 1 1.0 0.0 50 139
+ 0.83728 0 1 tcp 1040 ------- 1 0.0 1.0 54 142
- 0.8376 0 1 tcp 1040 ------- 1 0.0 1.0 53 140
r 0.8456 0 1 tcp 1040 ------- 1 0.0 1.0 52 138
+ 0.8456 1 0 ack 40 ------- 1 1.0 0.0 52 143
- 0.8456 1 0 ack 40 ------- 1 1.0 0.0 52 143
r 0.8456 1 0 ack 40 ------- 1 1.0 0.0 51 141
+ 0.8456 0 1 tcp 1040 ------- 1 0.0 1.0 55 144
- 0.84592 0 1 tcp 1040 ------- 1 0.0 1.0 54 142
r 0.85392 0 1 tcp 1040 ------- 1 0.0 1.0 53 140
+ 0.85392 1 0 ack 40 ------- 1 1.0 0.0 53 145
- 0.85392 1 0 ack 40 ------- 1 1.0 0.0 53 145
r 0.85392 1 0 ack 40 ------- 1 1.0 0.0 52 143
+ 0.85392 0 1 tcp 1040 ------- 1 0.0 1.0 56 146
+ 0.85392 0 1 tcp 1040 ------- 1 0.0 1.0 57 147
d 0.85392 0 1 tcp 1040 ------- 1 0.0 1.0 57 147
- 0.85424 0 1 tcp 1040 ------- 1 0.0 1.0 55 144
r 0.86224 0 1 tcp 1040 ------- 1 0.0 1.0 54 142
+ 0.86224 1 0 ack 40 ------- 1 1.0 0.0 54 148
- 0.86224 1 0 ack 40 ------- 1 1.0 0.0 54 148
r 0.86224 1 0 ack 40 ------- 1 1.0 0.0 53 145
+ 0.86224 0 1 tcp 1040 ------- 1 0.0 1.0 58 149
- 0.86256 0 1 tcp 1040 ------- 1 0.0 1.0 56 146
r 0.87056 0 1 tcp 1040 ------- 1 0.0 1.0 55 144
+ 0.87056 1 0 ack 40 ------- 1 1.0 0.0 55 150
- 0.87056 1 0 ack 40 ------- 1 1.0 0.0 55 150
r 0.87056 1 0 ack 40 ------- 1 1.0 0.0 54 148
+ 0.87056 0 1 tcp 1040 ------- 1 0.0 1.0 59 151
- 0.87088 0 1 tcp 1040 ------- 1 0.0 1.0 58 149
- 0.8712 2 1 tcp 1040 ------- 2 2.0 1.1 14 117
r 0.87888 0 1 tcp 1040 ------- 1 0.0 1.0 56 146
+ 0.87888 1 0 ack 40 ------- 1 1.0 0.0 56 152
- 0.87888 1 0 ack 40 ------- 1 1.0 0.0 56 152
r 0.87888 1 0 ack 40 ------- 1 1.0 0.0 55 150
+ 0.87888 0 1 tcp 1040 ------- 1 0.0 1.0 60 153
r 0.8792 2 1 tcp 1040 ------- 2 2.0 1.1 13 98
+ 0.8792 1 2 ack 40 ------- 2 1.1 2.0 5 154
- 0.8792 1 2 ack 40 ------- 2 1.1 2.0 5 154
- 0.8792 0 1 tcp 1040 ------- 1 0.0 1.0 59 151
r 0.8872 0 1 tcp 1040 ------- 1 0.0 1.0 58 149
+ 0.8872 1 0 ack 40 ------- 1 1.0 0.0 56 155
- 0.8872 1 0 ack 40 ------- 1 1.0 0.0 56 155
r 0.8872 1 0 ack 40 ------- 1 1.0 0.0 56 152
+ 0.8872 0 1 tcp 1040 ------- 1 0.0 1.0 61 156
- 0.88752 0 1 tcp 1040 ------- 1 0.0 1.0 60 153
r 0.8904 1 2 ack 40 ------- 2 1.1 2.0 5 154
r 0.89552 0 1 tcp 1040 ------- 1 0.0 1.0 59 151
+ 0.89552 1 0 ack 40 ------- 1 1.0 0.0 56 157
- 0.89552 1 0 ack 40 ------- 1 1.0 0.0 56 157
r 0.89552 1 0 ack 40 ------- 1 1.0 0.0 56 155
+ 0.89552 0 1 tcp 1040 ------- 1 0.0 1.0 62 158
- 0.89584 0 1 tcp 1040 ------- 1 0.0 1.0 61 156
r 0.90384 0 1 tcp 1040 ------- 1 0.0 1.0 60 153
+ 0.90384 1 0 ack 40 ------- 1 1.0 0.0 56 159
- 0.90384 1 0 ack 40 ------- 1 1.0 0.0 56 159
r 0.90384 1 0 ack 40 ------- 1 1.0 0.0 56 157
+ 0.90384 0 1 tcp 1040 ------- 1 0.0 1.0 63 160
- 0.90416 0 1 tcp 1040 ------- 1 0.0 1.0 62 158
r 0.91216 0 1 tcp 1040 ------- 1 0.0 1.0 61 156
+ 0.91216 1 0 ack 40 ------- 1 1.0 0.0 56 161
- 0.91216 1 0 ack 40 ------- 1 1.0 0.0 56 161
r 0.91216 1 0 ack 40 ------- 1 1.0 0.0 56 159
+ 0.91216 0 1 tcp 1040 ---A--- 1 0.0 1.0 57 162
- 0.91248 0 1 tcp 1040 ------- 1 0.0 1.0 63 160
r 0.92048 0 1 tcp 1040 ------- 1 0.0 1.0 62 158
+ 0.92048 1 0 ack 40 ------- 1 1.0 0.0 56 163
- 0.92048 1 0 ack 40 ------- 1 1.0 0.0 56 163
r 0.92048 1 0 ack 40 ------- 1 1.0 0.0 56 161
- 0.9208 0 1 tcp 1040 ---A--- 1 0.0 1.0 57 162
r 0.9288 0 1 tcp 1040 ------- 1 0.0 1.0 63 160
+ 0.9288 1 0 ack 40 ------- 1 1.0 0.0 56 164
- 0.9288 1 0 ack 40 ------- 1 1.0 0.0 56 164
r 0.9288 1 0 ack 40 ------- 1 1.0 0.0 56 163
r 0.93712 0 1 tcp 1040 ---A--- 1 0.0 1.0 57 162
+ 0.93712 1 0 ack 40 ------- 1 1.0 0.0 63 165
- 0.93712 1 0 ack 40 ------- 1 1.0 0.0 63 165
r 0.93712 1 0 ack 40 ------- 1 1.0 0.0 56 164
r 0.94544 1 0 ack 40 ------- 1 1.0 0.0 63 165
+ 0.94544 0 1 tcp 1040 ------- 1 0.0 1.0 64 166
- 0.94544 0 1 tcp 1040 ------- 1 0.0 1.0 64 166
+ 0.94544 0 1 tcp 1040 ------- 1 0.0 1.0 65 167
- 0.95376 0 1 tcp 1040 ------- 1 0.0 1.0 65 167
- 0.9544 2 1 tcp 1040 ---A--- 2 2.0 1.1 6 133
r 0.96176 0 1 tcp 1040 ------- 1 0.0 1.0 64 166
+ 0.96176 1 0 ack 40 ------- 1 1.0 0.0 64 168
- 0.96176 1 0 ack 40 ------- 1 1.0 0.0 64 168
r 0.9624 2 1 tcp 1040 ------- 2 2.0 1.1 14 117
+ 0.9624 1 2 ack 40 ------- 2 1.1 2.0 5 169
- 0.9624 1 2 ack 40 ------- 2 1.1 2.0 5 169
r 0.97008 0 1 tcp 1040 ------- 1 0.0 1.0 65 167
+ 0.97008 1 0 ack 40 ------- 1 1.0 0.0 65 170
- 0.97008 1 0 ack 40 ------- 1 1.0 0.0 65 170
r 0.97008 1 0 ack 40 ------- 1 1.0 0.0 64 168
+ 0.97008 0 1 tcp 1040 ------- 1 0.0 1.0 66 171
- 0.97008 0 1 tcp 1040 ------- 1 0.0 1.0 66 171
r 0.9736 1 2 ack 40 ------- 2 1.1 2.0 5 169
r 0.9784 1 0 ack 40 ------- 1 1.0 0.0 65 170
+ 0.9784 0 1 tcp 1040 ------- 1 0.0 1.0 67 172
- 0.9784 0 1 tcp 1040 ------- 1 0.0 1.0 67 172
r 0.9864 0 1 tcp 1040 ------- 1 0.0 1.0 66 171
+ 0.9864 1 0 ack 40 ------- 1 1.0 0.0 66 173
- 0.9864 1 0 ack 40 ------- 1 1.0 0.0 66 173
r 0.99472 0 1 tcp 1040 ------- 1 0.0 1.0 67 172
+ 0.99472 1 0 ack 40 ------- 1 1.0 0.0 67 174
- 0.99472 1 0 ack 40 ------- 1 1.0 0.0 67 174
r 0.99472 1 0 ack 40 ------- 1 1.0 0.0 66 173
+ 0.99472 0 1 tcp 1040 ------- 1 0.0 1.0 68 175
- 0.99472 0 1 tcp 1040 ------- 1 0.0 1.0 68 175
+ 0.99472 0 1 tcp 1040 ------- 1 0.0 1.0 69 176
r 1.00304 1 0 ack 40 ------- 1 1.0 0.0 67 174
+ 1.00304 0 1 tcp 1040 ------- 1 0.0 1.0 70 177
- 1.00304 0 1 tcp 1040 ------- 1 0.0 1.0 69 176
r 1.01104 0 1 tcp 1040 ------- 1 0.0 1.0 68 175
+ 1.01104 1 0 ack 40 ------- 1 1.0 0.0 68 178
- 1.01104 1 0 ack 40 ------- 1 1.0 0.0 68 178
- 1.01136 0 1 tcp 1040 ------- 1 0.0 1.0 70 177
r 1.01936 0 1 tcp 1040 ------- 1 0.0 1.0 69 176
+ 1.01936 1 0 ack 40 ------- 1 1.0 0.0 69 179
- 1.01936 1 0 ack 40 ------- 1 1.0 0.0 69 179
r 1.01936 1 0 ack 40 ------- 1 1.0 0.0 68 178
+ 1.01936 0 1 tcp 1040 ------- 1 0.0 1.0 71 180
- 1.01968 0 1 tcp 1040 ------- 1 0.0 1.0 71 180
r 1.02768 0 1 tcp 1040 ------- 1 0.0 1.0 70 177
+ 1.02768 1 0 ack 40 ------- 1 1.0 0.0 70 181
- 1.02768 1 0 ack 40 ------- 1 1.0 0.0 70 181
r 1.02768 1 0 ack 40 ------- 1 1.0 0.0 69 179
+ 1.02768 0 1 tcp 1040 ------- 1 0.0 1.0 72 182
+ 1.02768 0 1 tcp 1040 ------- 1 0.0 1.0 73 183
- 1.028 0 1 tcp 1040 ------- 1 0.0 1.0 72 182
r 1.036 1 0 ack 40 ------- 1 1.0 0.0 70 181
+ 1.036 0 1 tcp 1040 ------- 1 0.0 1.0 74 184
r 1.036 0 1 tcp 1040 ------- 1 0.0 1.0 71 180
+ 1.036 1 0 ack 40 ------- 1 1.0 0.0 71 185
- 1.036 1 0 ack 40 ------- 1 1.0 0.0 71 185
- 1.03632 0 1 tcp 1040 ------- 1 0.0 1.0 73 183
r 1.04432 0 1 tcp 1040 ------- 1 0.0 1.0 72 182
+ 1.04432 1 0 ack 40 ------- 1 1.0 0.0 72 186
- 1.04432 1 0 ack 40 ------- 1 1.0 0.0 72 186
r 1.04432 1 0 ack 40 ------- 1 1.0 0.0 71 185
+ 1.04432 0 1 tcp 1040 ------- 1 0.0 1.0 75 187
- 1.04464 0 1 tcp 1040 ------- 1 0.0 1.0 74 184
r 1.0456 2 1 tcp 1040 ---A--- 2 2.0 1.1 6 133
+ 1.0456 1 2 ack 40 ------- 2 1.1 2.0 7 188
- 1.0456 1 2 ack 40 ------- 2 1.1 2.0 7 188
r 1.05264 1 0 ack 40 ------- 1 1.0 0.0 72 186
+ 1.05264 0 1 tcp 1040 ------- 1 0.0 1.0 76 189
r 1.05264 0 1 tcp 1040 ------- 1 0.0 1.0 73 183
+ 1.05264 1 0 ack 40 ------- 1 1.0 0.0 73 190
- 1.05264 1 0 ack 40 ------- 1 1.0 0.0 73 190
- 1.05296 0 1 tcp 1040 ------- 1 0.0 1.0 75 187
r 1.0568 1 2 ack 40 ------- 2 1.1 2.0 7 188
+ 1.0568 2 1 tcp 1040 ------- 2 2.0 1.1 8 191
- 1.0568 2 1 tcp 1040 ------- 2 2.0 1.1 8 191
+ 1.0568 2 1 tcp 1040 ------- 2 2.0 1.1 9 192
r 1.06096 0 1 tcp 1040 ------- 1 0.0 1.0 74 184
+ 1.06096 1 0 ack 40 ------- 1 1.0 0.0 74 193
- 1.06096 1 0 ack 40 ------- 1 1.0 0.0 74 193
r 1.06096 1 0 ack 40 ------- 1 1.0 0.0 73 190
+ 1.06096 0 1 tcp 1040 ------- 1 0.0 1.0 77 194
- 1.06128 0 1 tcp 1040 ------- 1 0.0 1.0 76 189
r 1.06928 1 0 ack 40 ------- 1 1.0 0.0 74 193
+ 1.06928 0 1 tcp 1040 ------- 1 0.0 1.0 78 195
+ 1.06928 0 1 tcp 1040 ------- 1 0.0 1.0 79 196
d 1.06928 0 1 tcp 1040 ------- 1 0.0 1.0 79 196
r 1.06928 0 1 tcp 1040 ------- 1 0.0 1.0 75 187
+ 1.06928 1 0 ack 40 ------- 1 1.0 0.0 75 197
- 1.06928 1 0 ack 40 ------- 1 1.0 0.0 75 197
- 1.0696 0 1 tcp 1040 ------- 1 0.0 1.0 77 194
r 1.0776 0 1 tcp 1040 ------- 1 0.0 1.0 76 189
+ 1.0776 1 0 ack 40 ------- 1 1.0 0.0 76 198
- 1.0776 1 0 ack 40 ------- 1 1.0 0.0 76 198
r 1.0776 1 0 ack 40 ------- 1 1.0 0.0 75 197
+ 1.0776 0 1 tcp 1040 ------- 1 0.0 1.0 80 199
- 1.07792 0 1 tcp 1040 ------- 1 0.0 1.0 78 195
r 1.08592 1 0 ack 40 ------- 1 1.0 0.0 76 198
+ 1.08592 0 1 tcp 1040 ------- 1 0.0 1.0 81 200
r 1.08592 0 1 tcp 1040 ------- 1 0.0 1.0 77 194
+ 1.08592 1 0 ack 40 ------- 1 1.0 0.0 77 201
- 1.08592 1 0 ack 40 ------- 1 1.0 0.0 77 201
- 1.08624 0 1 tcp 1040 ------- 1 0.0 1.0 80 199
r 1.09424 0 1 tcp 1040 ------- 1 0.0 1.0 78 195
+ 1.09424 1 0 ack 40 ------- 1 1.0 0.0 78 202
- 1.09424 1 0 ack 40 ------- 1 1.0 0.0 78 202
r 1.09424 1 0 ack 40 ------- 1 1.0 0.0 77 201
+ 1.09424 0 1 tcp 1040 ------- 1 0.0 1.0 82 203
- 1.09456 0 1 tcp 1040 ------- 1 0.0 1.0 81 200
r 1.10256 1 0 ack 40 ------- 1 1.0 0.0 78 202
+ 1.10256 0 1 tcp 1040 ------- 1 0.0 1.0 83 204
r 1.10256 0 1 tcp 1040 ------- 1 0.0 1.0 80 199
+ 1.10256 1 0 ack 40 ------- 1 1.0 0.0 78 205
- 1.10256 1 0 ack 40 ------- 1 1.0 0.0 78 205
- 1.10288 0 1 tcp 1040 ------- 1 0.0 1.0 82 203
r 1.11088 0 1 tcp 1040 ------- 1 0.0 1.0 81 200
+ 1.11088 1 0 ack 40 ------- 1 1.0 0.0 78 206
- 1.11088 1 0 ack 40 ------- 1 1.0 0.0 78 206
r 1.11088 1 0 ack 40 ------- 1 1.0 0.0 78 205
+ 1.11088 0 1 tcp 1040 ------- 1 0.0 1.0 84 207
- 1.1112 0 1 tcp 1040 ------- 1 0.0 1.0 83 204
r 1.1192 1 0 ack 40 ------- 1 1.0 0.0 78 206
+ 1.1192 0 1 tcp 1040 ------- 1 0.0 1.0 85 208
r 1.1192 0 1 tcp 1040 ------- 1 0.0 1.0 82 203
+ 1.1192 1 0 ack 40 ------- 1 1.0 0.0 78 209
- 1.1192 1 0 ack 40 ------- 1 1.0 0.0 78 209
- 1.11952 0 1 tcp 1040 ------- 1 0.0 1.0 84 207
r 1.12752 0 1 tcp 1040 ------- 1 0.0 1.0 83 204
+ 1.12752 1 0 ack 40 ------- 1 1.0 0.0 78 210
- 1.12752 1 0 ack 40 ------- 1 1.0 0.0 78 210
r 1.12752 1 0 ack 40 ------- 1 1.0 0.0 78 209
+ 1.12752 0 1 tcp 1040 ---A--- 1 0.0 1.0 79 211
- 1.12784 0 1 tcp 1040 ------- 1 0.0 1.0 85 208
r 1.13584 1 0 ack 40 ------- 1 1.0 0.0 78 210
r 1.13584 0 1 tcp 1040 ------- 1 0.0 1.0 84 207
+ 1.13584 1 0 ack 40 ------- 1 1.0 0.0 78 212
- 1.13584 1 0 ack 40 ------- 1 1.0 0.0 78 212
- 1.13616 0 1 tcp 1040 ---A--- 1 0.0 1.0 79 211
- 1.14 2 1 tcp 1040 ------- 2 2.0 1.1 9 192
r 1.14416 0 1 tcp 1040 ------- 1 0.0 1.0 85 208
+ 1.14416 1 0 ack 40 ------- 1 1.0 0.0 78 213
- 1.14416 1 0 ack 40 ------- 1 1.0 0.0 78 213
r 1.14416 1 0 ack 40 ------- 1 1.0 0.0 78 212
r 1.148 2 1 tcp 1040 ------- 2 2.0 1.1 8 191
+ 1.148 1 2 ack 40 ------- 2 1.1 2.0 9 214
- 1.148 1 2 ack 40 ------- 2 1.1 2.0 9 214
r 1.15248 1 0 ack 40 ------- 1 1.0 0.0 78 213
r 1.15248 0 1 tcp 1040 ---A--- 1 0.0 1.0 79 211
+ 1.15248 1 0 ack 40 ------- 1 1.0 0.0 85 215
- 1.15248 1 0 ack 40 ------- 1 1.0 0.0 85 215
r 1.1592 1 2 ack 40 ------- 2 1.1 2.0 9 214
+ 1.1592 2 1 tcp 1040 ------- 2 2.0 1.1 10 216
+ 1.1592 2 1 tcp 1040 ------- 2 2.0 1.1 11 217
+ 1.1592 2 1 tcp 1040 ------- 2 2.0 1.1 12 218
d 1.1592 2 1 tcp 1040 ------- 2 2.0 1.1 12 218
r 1.1608 1 0 ack 40 ------- 1 1.0 0.0 85 215
+ 1.1608 0 1 tcp 1040 ------- 1 0.0 1.0 86 219
- 1.1608 0 1 tcp 1040 ------- 1 0.0 1.0 86 219
+ 1.1608 0 1 tcp 1040 ------- 1 0.0 1.0 87 220
- 1.16912 0 1 tcp 1040 ------- 1 0.0 1.0 87 220
r 1.17712 0 1 tcp 1040 ------- 1 0.0 1.0 86 219
+ 1.17712 1 0 ack 40 ------- 1 1.0 0.0 86 221
- 1.17712 1 0 ack 40 ------- 1 1.0 0.0 86 221
r 1.18544 0 1 tcp 1040 ------- 1 0.0 1.0 87 220
+ 1.18544 1 0 ack 40 ------- 1 1.0 0.0 87 222
- 1.18544 1 0 ack 40 ------- 1 1.0 0.0 87 222
r 1.18544 1 0 ack 40 ------- 1 1.0 0.0 86 221
+ 1.18544 0 1 tcp 1040 ------- 1 0.0 1.0 88 223
- 1.18544 0 1 tcp 1040 ------- 1 0.0 1.0 88 223