+ 0.1 0 2 tcp 40 ------- 0 0.0 3.0 0 0
- 0.1 0 2 tcp 40 ------- 0 0.0 3.0 0 0
+ 0.1 1 2 cbr 210 ------- 0 1.0 3.1 0 1
- 0.1 1 2 cbr 210 ------- 0 1.0 3.1 0 1
r 0.10132 0 2 tcp 40 ------- 0 0.0 3.0 0 0
+ 0.10132 2 3 tcp 40 ------- 0 0.0 3.0 0 0
- 0.10132 2 3 tcp 40 ------- 0 0.0 3.0 0 0
r 0.10264 2 3 tcp 40 ------- 0 0.0 3.0 0 0
+ 0.10264 3 2 ack 40 ------- 0 3.0 0.0 0 2
- 0.10264 3 2 ack 40 ------- 0 3.0 0.0 0 2
r 0.10268 1 2 cbr 210 ------- 0 1.0 3.1 0 1
+ 0.10268 2 3 cbr 210 ------- 0 1.0 3.1 0 1
- 0.10268 2 3 cbr 210 ------- 0 1.0 3.1 0 1
+ 0.10375 1 2 cbr 210 ------- 0 1.0 3.1 1 3
- 0.10375 1 2 cbr 210 ------- 0 1.0 3.1 1 3
r 0.10396 3 2 ack 40 ------- 0 3.0 0.0 0 2
+ 0.10396 2 0 ack 40 ------- 0 3.0 0.0 0 2
- 0.10396 2 0 ack 40 ------- 0 3.0 0.0 0 2
r 0.10528 2 0 ack 40 ------- 0 3.0 0.0 0 2
+ 0.10528 0 2 tcp 1040 ------- 0 0.0 3.0 1 4
- 0.10528 0 2 tcp 1040 ------- 0 0.0 3.0 1 4
+ 0.10528 0 2 tcp 1040 ------- 0 0.0 3.0 2 5
r 0.10536 2 3 cbr 210 ------- 0 1.0 3.1 0 1
r 0.10643 1 2 cbr 210 ------- 0 1.0 3.1 1 3
+ 0.10643 2 3 cbr 210 ------- 0 1.0 3.1 1 3
- 0.10643 2 3 cbr 210 ------- 0 1.0 3.1 1 3
+ 0.1075 1 2 cbr 210 ------- 0 1.0 3.1 2 6
- 0.1075 1 2 cbr 210 ------- 0 1.0 3.1 2 6
r 0.10911 2 3 cbr 210 ------- 0 1.0 3.1 1 3
r 0.11018 1 2 cbr 210 ------- 0 1.0 3.1 2 6
+ 0.11018 2 3 cbr 210 ------- 0 1.0 3.1 2 6
- 0.11018 2 3 cbr 210 ------- 0 1.0 3.1 2 6
+ 0.11125 1 2 cbr 210 ------- 0 1.0 3.1 3 7
- 0.11125 1 2 cbr 210 ------- 0 1.0 3.1 3 7
r 0.11286 2 3 cbr 210 ------- 0 1.0 3.1 2 6
- 0.1136 0 2 tcp 1040 ------- 0 0.0 3.0 2 5
r 0.11393 1 2 cbr 210 ------- 0 1.0 3.1 3 7
+ 0.11393 2 3 cbr 210 ------- 0 1.0 3.1 3 7
- 0.11393 2 3 cbr 210 ------- 0 1.0 3.1 3 7
r 0.1146 0 2 tcp 1040 ------- 0 0.0 3.0 1 4
+ 0.1146 2 3 tcp 1040 ------- 0 0.0 3.0 1 4
+ 0.115 1 2 cbr 210 ------- 0 1.0 3.1 4 8
- 0.115 1 2 cbr 210 ------- 0 1.0 3.1 4 8
- 0.11561 2 3 tcp 1040 ------- 0 0.0 3.0 1 4
r 0.11661 2 3 cbr 210 ------- 0 1.0 3.1 3 7
r 0.11768 1 2 cbr 210 ------- 0 1.0 3.1 4 8
+ 0.11768 2 3 cbr 210 ------- 0 1.0 3.1 4 8
+ 0.11875 1 2 cbr 210 ------- 0 1.0 3.1 5 9
- 0.11875 1 2 cbr 210 ------- 0 1.0 3.1 5 9
r 0.12143 1 2 cbr 210 ------- 0 1.0 3.1 5 9
+ 0.12143 2 3 cbr 210 ------- 0 1.0 3.1 5 9
+ 0.1225 1 2 cbr 210 ------- 0 1.0 3.1 6 10
- 0.1225 1 2 cbr 210 ------- 0 1.0 3.1 6 10
r 0.12292 0 2 tcp 1040 ------- 0 0.0 3.0 2 5
+ 0.12292 2 3 tcp 1040 ------- 0 0.0 3.0 2 5
- 0.12393 2 3 cbr 210 ------- 0 1.0 3.1 4 8
r 0.12493 2 3 tcp 1040 ------- 0 0.0 3.0 1 4
+ 0.12493 3 2 ack 40 ------- 0 3.0 0.0 1 11
- 0.12493 3 2 ack 40 ------- 0 3.0 0.0 1 11
r 0.12518 1 2 cbr 210 ------- 0 1.0 3.1 6 10
+ 0.12518 2 3 cbr 210 ------- 0 1.0 3.1 6 10
- 0.12561 2 3 cbr 210 ------- 0 1.0 3.1 5 9
r 0.12625 3 2 ack 40 ------- 0 3.0 0.0 1 11
+ 0.12625 2 0 ack 40 ------- 0 3.0 0.0 1 11
- 0.12625 2 0 ack 40 ------- 0 3.0 0.0 1 11
+ 0.12625 1 2 cbr 210 ------- 0 1.0 3.1 7 12
- 0.12625 1 2 cbr 210 ------- 0 1.0 3.1 7 12
r 0.12661 2 3 cbr 210 ------- 0 1.0 3.1 4 8
- 0.12729 2 3 tcp 1040 ------- 0 0.0 3.0 2 5
r 0.12757 2 0 ack 40 ------- 0 3.0 0.0 1 11
+ 0.12757 0 2 tcp 1040 ------- 0 0.0 3.0 3 13
- 0.12757 0 2 tcp 1040 ------- 0 0.0 3.0 3 13
+ 0.12757 0 2 tcp 1040 ------- 0 0.0 3.0 4 14
r 0.12829 2 3 cbr 210 ------- 0 1.0 3.1 5 9
r 0.12893 1 2 cbr 210 ------- 0 1.0 3.1 7 12
+ 0.12893 2 3 cbr 210 ------- 0 1.0 3.1 7 12
+ 0.13 1 2 cbr 210 ------- 0 1.0 3.1 8 15
- 0.13 1 2 cbr 210 ------- 0 1.0 3.1 8 15
r 0.13268 1 2 cbr 210 ------- 0 1.0 3.1 8 15
+ 0.13268 2 3 cbr 210 ------- 0 1.0 3.1 8 15
+ 0.13375 1 2 cbr 210 ------- 0 1.0 3.1 9 16
- 0.13375 1 2 cbr 210 ------- 0 1.0 3.1 9 16
- 0.13561 2 3 cbr 210 ------- 0 1.0 3.1 6 10
- 0.13589 0 2 tcp 1040 ------- 0 0.0 3.0 4 14
r 0.13643 1 2 cbr 210 ------- 0 1.0 3.1 9 16
+ 0.13643 2 3 cbr 210 ------- 0 1.0 3.1 9 16
r 0.13661 2 3 tcp 1040 ------- 0 0.0 3.0 2 5
+ 0.13661 3 2 ack 40 ------- 0 3.0 0.0 2 17
- 0.13661 3 2 ack 40 ------- 0 3.0 0.0 2 17
r 0.13689 0 2 tcp 1040 ------- 0 0.0 3.0 3 13
+ 0.13689 2 3 tcp 1040 ------- 0 0.0 3.0 3 13
- 0.13729 2 3 cbr 210 ------- 0 1.0 3.1 7 12
+ 0.1375 1 2 cbr 210 ------- 0 1.0 3.1 10 18
- 0.1375 1 2 cbr 210 ------- 0 1.0 3.1 10 18
r 0.13793 3 2 ack 40 ------- 0 3.0 0.0 2 17
+ 0.13793 2 0 ack 40 ------- 0 3.0 0.0 2 17
- 0.13793 2 0 ack 40 ------- 0 3.0 0.0 2 17
r 0.13829 2 3 cbr 210 ------- 0 1.0 3.1 6 10
- 0.13897 2 3 cbr 210 ------- 0 1.0 3.1 8 15
r 0.13925 2 0 ack 40 ------- 0 3.0 0.0 2 17
+ 0.13925 0 2 tcp 1040 ------- 0 0.0 3.0 5 19
+ 0.13925 0 2 tcp 1040 ------- 0 0.0 3.0 6 20
r 0.13997 2 3 cbr 210 ------- 0 1.0 3.1 7 12
r 0.14018 1 2 cbr 210 ------- 0 1.0 3.1 10 18
+ 0.14018 2 3 cbr 210 ------- 0 1.0 3.1 10 18
- 0.14065 2 3 cbr 210 ------- 0 1.0 3.1 9 16
+ 0.14125 1 2 cbr 210 ------- 0 1.0 3.1 11 21
- 0.14125 1 2 cbr 210 ------- 0 1.0 3.1 11 21
r 0.14165 2 3 cbr 210 ------- 0 1.0 3.1 8 15
- 0.14233 2 3 tcp 1040 ------- 0 0.0 3.0 3 13
r 0.14333 2 3 cbr 210 ------- 0 1.0 3.1 9 16
r 0.14393 1 2 cbr 210 ------- 0 1.0 3.1 11 21
+ 0.14393 2 3 cbr 210 ------- 0 1.0 3.1 11 21
- 0.14421 0 2 tcp 1040 ------- 0 0.0 3.0 5 19
+ 0.145 1 2 cbr 210 ------- 0 1.0 3.1 12 22
- 0.145 1 2 cbr 210 ------- 0 1.0 3.1 12 22
r 0.14521 0 2 tcp 1040 ------- 0 0.0 3.0 4 14
+ 0.14521 2 3 tcp 1040 ------- 0 0.0 3.0 4 14
r 0.14768 1 2 cbr 210 ------- 0 1.0 3.1 12 22
+ 0.14768 2 3 cbr 210 ------- 0 1.0 3.1 12 22
+ 0.14875 1 2 cbr 210 ------- 0 1.0 3.1 13 23
- 0.14875 1 2 cbr 210 ------- 0 1.0 3.1 13 23
- 0.15065 2 3 cbr 210 ------- 0 1.0 3.1 10 18
r 0.15143 1 2 cbr 210 ------- 0 1.0 3.1 13 23
+ 0.15143 2 3 cbr 210 ------- 0 1.0 3.1 13 23
r 0.15165 2 3 tcp 1040 ------- 0 0.0 3.0 3 13
+ 0.15165 3 2 ack 40 ------- 0 3.0 0.0 3 24
- 0.15165 3 2 ack 40 ------- 0 3.0 0.0 3 24
- 0.15233 2 3 cbr 210 ------- 0 1.0 3.1 11 21
+ 0.1525 1 2 cbr 210 ------- 0 1.0 3.1 14 25
- 0.1525 1 2 cbr 210 ------- 0 1.0 3.1 14 25
- 0.15253 0 2 tcp 1040 ------- 0 0.0 3.0 6 20
r 0.15297 3 2 ack 40 ------- 0 3.0 0.0 3 24
+ 0.15297 2 0 ack 40 ------- 0 3.0 0.0 3 24
- 0.15297 2 0 ack 40 ------- 0 3.0 0.0 3 24
r 0.15333 2 3 cbr 210 ------- 0 1.0 3.1 10 18
r 0.15353 0 2 tcp 1040 ------- 0 0.0 3.0 5 19
+ 0.15353 2 3 tcp 1040 ------- 0 0.0 3.0 5 19
- 0.15401 2 3 tcp 1040 ------- 0 0.0 3.0 4 14
r 0.15429 2 0 ack 40 ------- 0 3.0 0.0 3 24
+ 0.15429 0 2 tcp 1040 ------- 0 0.0 3.0 7 26
+ 0.15429 0 2 tcp 1040 ------- 0 0.0 3.0 8 27
r 0.15501 2 3 cbr 210 ------- 0 1.0 3.1 11 21
r 0.15518 1 2 cbr 210 ------- 0 1.0 3.1 14 25
+ 0.15518 2 3 cbr 210 ------- 0 1.0 3.1 14 25
+ 0.15625 1 2 cbr 210 ------- 0 1.0 3.1 15 28
- 0.15625 1 2 cbr 210 ------- 0 1.0 3.1 15 28
r 0.15893 1 2 cbr 210 ------- 0 1.0 3.1 15 28
+ 0.15893 2 3 cbr 210 ------- 0 1.0 3.1 15 28
+ 0.16 1 2 cbr 210 ------- 0 1.0 3.1 16 29
- 0.16 1 2 cbr 210 ------- 0 1.0 3.1 16 29
- 0.16085 0 2 tcp 1040 ------- 0 0.0 3.0 7 26
r 0.16185 0 2 tcp 1040 ------- 0 0.0 3.0 6 20
+ 0.16185 2 3 tcp 1040 ------- 0 0.0 3.0 6 20
- 0.16233 2 3 cbr 210 ------- 0 1.0 3.1 12 22
r 0.16268 1 2 cbr 210 ------- 0 1.0 3.1 16 29
+ 0.16268 2 3 cbr 210 ------- 0 1.0 3.1 16 29
r 0.16333 2 3 tcp 1040 ------- 0 0.0 3.0 4 14
+ 0.16333 3 2 ack 40 ------- 0 3.0 0.0 4 30
- 0.16333 3 2 ack 40 ------- 0 3.0 0.0 4 30
+ 0.16375 1 2 cbr 210 ------- 0 1.0 3.1 17 31
- 0.16375 1 2 cbr 210 ------- 0 1.0 3.1 17 31
- 0.16401 2 3 cbr 210 ------- 0 1.0 3.1 13 23
r 0.16465 3 2 ack 40 ------- 0 3.0 0.0 4 30
+ 0.16465 2 0 ack 40 ------- 0 3.0 0.0 4 30
- 0.16465 2 0 ack 40 ------- 0 3.0 0.0 4 30
r 0.16501 2 3 cbr 210 ------- 0 1.0 3.1 12 22
- 0.16569 2 3 tcp 1040 ------- 0 0.0 3.0 5 19
r 0.16597 2 0 ack 40 ------- 0 3.0 0.0 4 30
+ 0.16597 0 2 tcp 1040 ------- 0 0.0 3.0 9 32
+ 0.16597 0 2 tcp 1040 ------- 0 0.0 3.0 10 33
r 0.16643 1 2 cbr 210 ------- 0 1.0 3.1 17 31
+ 0.16643 2 3 cbr 210 ------- 0 1.0 3.1 17 31
r 0.16669 2 3 cbr 210 ------- 0 1.0 3.1 13 23
+ 0.1675 1 2 cbr 210 ------- 0 1.0 3.1 18 34
- 0.1675 1 2 cbr 210 ------- 0 1.0 3.1 18 34
- 0.16917 0 2 tcp 1040 ------- 0 0.0 3.0 8 27
r 0.17017 0 2 tcp 1040 ------- 0 0.0 3.0 7 26
+ 0.17017 2 3 tcp 1040 ------- 0 0.0 3.0 7 26
r 0.17018 1 2 cbr 210 ------- 0 1.0 3.1 18 34
+ 0.17018 2 3 cbr 210 ------- 0 1.0 3.1 18 34
+ 0.17125 1 2 cbr 210 ------- 0 1.0 3.1 19 35
- 0.17125 1 2 cbr 210 ------- 0 1.0 3.1 19 35
r 0.17393 1 2 cbr 210 ------- 0 1.0 3.1 19 35
+ 0.17393 2 3 cbr 210 ------- 0 1.0 3.1 19 35
- 0.17401 2 3 cbr 210 ------- 0 1.0 3.1 14 25
+ 0.175 1 2 cbr 210 ------- 0 1.0 3.1 20 36
- 0.175 1 2 cbr 210 ------- 0 1.0 3.1 20 36
r 0.17501 2 3 tcp 1040 ------- 0 0.0 3.0 5 19
+ 0.17501 3 2 ack 40 ------- 0 3.0 0.0 5 37
- 0.17501 3 2 ack 40 ------- 0 3.0 0.0 5 37
- 0.17569 2 3 cbr 210 ------- 0 1.0 3.1 15 28
r 0.17633 3 2 ack 40 ------- 0 3.0 0.0 5 37
+ 0.17633 2 0 ack 40 ------- 0 3.0 0.0 5 37
- 0.17633 2 0 ack 40 ------- 0 3.0 0.0 5 37
r 0.17669 2 3 cbr 210 ------- 0 1.0 3.1 14 25
- 0.17737 2 3 tcp 1040 ------- 0 0.0 3.0 6 20
- 0.17749 0 2 tcp 1040 ------- 0 0.0 3.0 9 32
r 0.17765 2 0 ack 40 ------- 0 3.0 0.0 5 37
+ 0.17765 0 2 tcp 1040 ------- 0 0.0 3.0 11 38
+ 0.17765 0 2 tcp 1040 ------- 0 0.0 3.0 12 39
r 0.17768 1 2 cbr 210 ------- 0 1.0 3.1 20 36
+ 0.17768 2 3 cbr 210 ------- 0 1.0 3.1 20 36
r 0.17837 2 3 cbr 210 ------- 0 1.0 3.1 15 28
r 0.17849 0 2 tcp 1040 ------- 0 0.0 3.0 8 27
+ 0.17849 2 3 tcp 1040 ------- 0 0.0 3.0 8 27
+ 0.17875 1 2 cbr 210 ------- 0 1.0 3.1 21 40
- 0.17875 1 2 cbr 210 ------- 0 1.0 3.1 21 40
r 0.18143 1 2 cbr 210 ------- 0 1.0 3.1 21 40
+ 0.18143 2 3 cbr 210 ------- 0 1.0 3.1 21 40
+ 0.1825 1 2 cbr 210 ------- 0 1.0 3.1 22 41
- 0.1825 1 2 cbr 210 ------- 0 1.0 3.1 22 41
r 0.18518 1 2 cbr 210 ------- 0 1.0 3.1 22 41
+ 0.18518 2 3 cbr 210 ------- 0 1.0 3.1 22 41
- 0.18569 2 3 cbr 210 ------- 0 1.0 3.1 16 29
- 0.18581 0 2 tcp 1040 ------- 0 0.0 3.0 10 33
+ 0.18625 1 2 cbr 210 ------- 0 1.0 3.1 23 42
- 0.18625 1 2 cbr 210 ------- 0 1.0 3.1 23 42
r 0.18669 2 3 tcp 1040 ------- 0 0.0 3.0 6 20
+ 0.18669 3 2 ack 40 ------- 0 3.0 0.0 6 43
- 0.18669 3 2 ack 40 ------- 0 3.0 0.0 6 43
r 0.18681 0 2 tcp 1040 ------- 0 0.0 3.0 9 32
+ 0.18681 2 3 tcp 1040 ------- 0 0.0 3.0 9 32
- 0.18737 2 3 cbr 210 ------- 0 1.0 3.1 17 31
r 0.18801 3 2 ack 40 ------- 0 3.0 0.0 6 43
+ 0.18801 2 0 ack 40 ------- 0 3.0 0.0 6 43
- 0.18801 2 0 ack 40 ------- 0 3.0 0.0 6 43
r 0.18837 2 3 cbr 210 ------- 0 1.0 3.1 16 29
r 0.18893 1 2 cbr 210 ------- 0 1.0 3.1 23 42
+ 0.18893 2 3 cbr 210 ------- 0 1.0 3.1 23 42
- 0.18905 2 3 tcp 1040 ------- 0 0.0 3.0 7 26
r 0.18933 2 0 ack 40 ------- 0 3.0 0.0 6 43
+ 0.18933 0 2 tcp 1040 ------- 0 0.0 3.0 13 44
+ 0.18933 0 2 tcp 1040 ------- 0 0.0 3.0 14 45
+ 0.19 1 2 cbr 210 ------- 0 1.0 3.1 24 46
- 0.19 1 2 cbr 210 ------- 0 1.0 3.1 24 46
r 0.19005 2 3 cbr 210 ------- 0 1.0 3.1 17 31
r 0.19268 1 2 cbr 210 ------- 0 1.0 3.1 24 46
+ 0.19268 2 3 cbr 210 ------- 0 1.0 3.1 24 46
+ 0.19375 1 2 cbr 210 ------- 0 1.0 3.1 25 47
- 0.19375 1 2 cbr 210 ------- 0 1.0 3.1 25 47
- 0.19413 0 2 tcp 1040 ------- 0 0.0 3.0 11 38
r 0.19513 0 2 tcp 1040 ------- 0 0.0 3.0 10 33
+ 0.19513 2 3 tcp 1040 ------- 0 0.0 3.0 10 33
r 0.19643 1 2 cbr 210 ------- 0 1.0 3.1 25 47
+ 0.19643 2 3 cbr 210 ------- 0 1.0 3.1 25 47
- 0.19737 2 3 cbr 210 ------- 0 1.0 3.1 18 34
+ 0.1975 1 2 cbr 210 ------- 0 1.0 3.1 26 48
- 0.1975 1 2 cbr 210 ------- 0 1.0 3.1 26 48
r 0.19837 2 3 tcp 1040 ------- 0 0.0 3.0 7 26
+ 0.19837 3 2 ack 40 ------- 0 3.0 0.0 7 49
- 0.19837 3 2 ack 40 ------- 0 3.0 0.0 7 49
- 0.19905 2 3 cbr 210 ------- 0 1.0 3.1 19 35
r 0.19969 3 2 ack 40 ------- 0 3.0 0.0 7 49
+ 0.19969 2 0 ack 40 ------- 0 3.0 0.0 7 49
- 0.19969 2 0 ack 40 ------- 0 3.0 0.0 7 49
r 0.20005 2 3 cbr 210 ------- 0 1.0 3.1 18 34
r 0.20018 1 2 cbr 210 ------- 0 1.0 3.1 26 48
+ 0.20018 2 3 cbr 210 ------- 0 1.0 3.1 26 48
- 0.20073 2 3 cbr 210 ------- 0 1.0 3.1 20 36
r 0.20101 2 0 ack 40 ------- 0 3.0 0.0 7 49
+ 0.20101 0 2 tcp 1040 ------- 0 0.0 3.0 15 50
+ 0.20101 0 2 tcp 1040 ------- 0 0.0 3.0 16 51
+ 0.20125 1 2 cbr 210 ------- 0 1.0 3.1 27 52
- 0.20125 1 2 cbr 210 ------- 0 1.0 3.1 27 52
r 0.20173 2 3 cbr 210 ------- 0 1.0 3.1 19 35
- 0.20241 2 3 tcp 1040 ------- 0 0.0 3.0 8 27
- 0.20245 0 2 tcp 1040 ------- 0 0.0 3.0 12 39
r 0.20341 2 3 cbr 210 ------- 0 1.0 3.1 20 36
r 0.20345 0 2 tcp 1040 ------- 0 0.0 3.0 11 38
+ 0.20345 2 3 tcp 1040 ------- 0 0.0 3.0 11 38
r 0.20393 1 2 cbr 210 ------- 0 1.0 3.1 27 52
+ 0.20393 2 3 cbr 210 ------- 0 1.0 3.1 27 52
+ 0.205 1 2 cbr 210 ------- 0 1.0 3.1 28 53
- 0.205 1 2 cbr 210 ------- 0 1.0 3.1 28 53
r 0.20768 1 2 cbr 210 ------- 0 1.0 3.1 28 53
+ 0.20768 2 3 cbr 210 ------- 0 1.0 3.1 28 53
+ 0.20875 1 2 cbr 210 ------- 0 1.0 3.1 29 54
- 0.20875 1 2 cbr 210 ------- 0 1.0 3.1 29 54
- 0.21073 2 3 cbr 210 ------- 0 1.0 3.1 21 40
- 0.21077 0 2 tcp 1040 ------- 0 0.0 3.0 13 44
r 0.21143 1 2 cbr 210 ------- 0 1.0 3.1 29 54
+ 0.21143 2 3 cbr 210 ------- 0 1.0 3.1 29 54
r 0.21173 2 3 tcp 1040 ------- 0 0.0 3.0 8 27
+ 0.21173 3 2 ack 40 ------- 0 3.0 0.0 8 55
- 0.21173 3 2 ack 40 ------- 0 3.0 0.0 8 55
r 0.21177 0 2 tcp 1040 ------- 0 0.0 3.0 12 39
+ 0.21177 2 3 tcp 1040 ------- 0 0.0 3.0 12 39
- 0.21241 2 3 cbr 210 ------- 0 1.0 3.1 22 41
+ 0.2125 1 2 cbr 210 ------- 0 1.0 3.1 30 56
- 0.2125 1 2 cbr 210 ------- 0 1.0 3.1 30 56
r 0.21305 3 2 ack 40 ------- 0 3.0 0.0 8 55
+ 0.21305 2 0 ack 40 ------- 0 3.0 0.0 8 55
- 0.21305 2 0 ack 40 ------- 0 3.0 0.0 8 55
r 0.21341 2 3 cbr 210 ------- 0 1.0 3.1 21 40
- 0.21409 2 3 tcp 1040 ------- 0 0.0 3.0 9 32
r 0.21437 2 0 ack 40 ------- 0 3.0 0.0 8 55
+ 0.21437 0 2 tcp 1040 ------- 0 0.0 3.0 17 57
+ 0.21437 0 2 tcp 1040 ------- 0 0.0 3.0 18 58
r 0.21509 2 3 cbr 210 ------- 0 1.0 3.1 22 41
r 0.21518 1 2 cbr 210 ------- 0 1.0 3.1 30 56
+ 0.21518 2 3 cbr 210 ------- 0 1.0 3.1 30 56
+ 0.21625 1 2 cbr 210 ------- 0 1.0 3.1 31 59
- 0.21625 1 2 cbr 210 ------- 0 1.0 3.1 31 59
r 0.21893 1 2 cbr 210 ------- 0 1.0 3.1 31 59
+ 0.21893 2 3 cbr 210 ------- 0 1.0 3.1 31 59
- 0.21909 0 2 tcp 1040 ------- 0 0.0 3.0 14 45
+ 0.22 1 2 cbr 210 ------- 0 1.0 3.1 32 60
- 0.22 1 2 cbr 210 ------- 0 1.0 3.1 32 60
r 0.22009 0 2 tcp 1040 ------- 0 0.0 3.0 13 44
+ 0.22009 2 3 tcp 1040 ------- 0 0.0 3.0 13 44
- 0.22241 2 3 cbr 210 ------- 0 1.0 3.1 23 42
r 0.22268 1 2 cbr 210 ------- 0 1.0 3.1 32 60
+ 0.22268 2 3 cbr 210 ------- 0 1.0 3.1 32 60
r 0.22341 2 3 tcp 1040 ------- 0 0.0 3.0 9 32
+ 0.22341 3 2 ack 40 ------- 0 3.0 0.0 9 61
- 0.22341 3 2 ack 40 ------- 0 3.0 0.0 9 61
+ 0.22375 1 2 cbr 210 ------- 0 1.0 3.1 33 62
- 0.22375 1 2 cbr 210 ------- 0 1.0 3.1 33 62
- 0.22409 2 3 cbr 210 ------- 0 1.0 3.1 24 46
r 0.22473 3 2 ack 40 ------- 0 3.0 0.0 9 61
+ 0.22473 2 0 ack 40 ------- 0 3.0 0.0 9 61
- 0.22473 2 0 ack 40 ------- 0 3.0 0.0 9 61
r 0.22509 2 3 cbr 210 ------- 0 1.0 3.1 23 42
- 0.22577 2 3 tcp 1040 ------- 0 0.0 3.0 10 33
r 0.22605 2 0 ack 40 ------- 0 3.0 0.0 9 61
+ 0.22605 0 2 tcp 1040 ------- 0 0.0 3.0 19 63
+ 0.22605 0 2 tcp 1040 ------- 0 0.0 3.0 20 64
r 0.22643 1 2 cbr 210 ------- 0 1.0 3.1 33 62
+ 0.22643 2 3 cbr 210 ------- 0 1.0 3.1 33 62
r 0.22677 2 3 cbr 210 ------- 0 1.0 3.1 24 46
- 0.22741 0 2 tcp 1040 ------- 0 0.0 3.0 15 50
+ 0.2275 1 2 cbr 210 ------- 0 1.0 3.1 34 65
- 0.2275 1 2 cbr 210 ------- 0 1.0 3.1 34 65
r 0.22841 0 2 tcp 1040 ------- 0 0.0 3.0 14 45
+ 0.22841 2 3 tcp 1040 ------- 0 0.0 3.0 14 45
r 0.23018 1 2 cbr 210 ------- 0 1.0 3.1 34 65
+ 0.23018 2 3 cbr 210 ------- 0 1.0 3.1 34 65
+ 0.23125 1 2 cbr 210 ------- 0 1.0 3.1 35 66
- 0.23125 1 2 cbr 210 ------- 0 1.0 3.1 35 66
r 0.23393 1 2 cbr 210 ------- 0 1.0 3.1 35 66
+ 0.23393 2 3 cbr 210 ------- 0 1.0 3.1 35 66
- 0.23409 2 3 cbr 210 ------- 0 1.0 3.1 25 47
+ 0.235 1 2 cbr 210 ------- 0 1.0 3.1 36 67
- 0.235 1 2 cbr 210 ------- 0 1.0 3.1 36 67
r 0.23509 2 3 tcp 1040 ------- 0 0.0 3.0 10 33
+ 0.23509 3 2 ack 40 ------- 0 3.0 0.0 10 68
- 0.23509 3 2 ack 40 ------- 0 3.0 0.0 10 68
- 0.23573 0 2 tcp 1040 ------- 0 0.0 3.0 16 51
- 0.23577 2 3 cbr 210 ------- 0 1.0 3.1 26 48
r 0.23641 3 2 ack 40 ------- 0 3.0 0.0 10 68
+ 0.23641 2 0 ack 40 ------- 0 3.0 0.0 10 68
- 0.23641 2 0 ack 40 ------- 0 3.0 0.0 10 68
r 0.23673 0 2 tcp 1040 ------- 0 0.0 3.0 15 50
+ 0.23673 2 3 tcp 1040 ------- 0 0.0 3.0 15 50
r 0.23677 2 3 cbr 210 ------- 0 1.0 3.1 25 47
- 0.23745 2 3 tcp 1040 ------- 0 0.0 3.0 11 38
r 0.23768 1 2 cbr 210 ------- 0 1.0 3.1 36 67
+ 0.23768 2 3 cbr 210 ------- 0 1.0 3.1 36 67
r 0.23773 2 0 ack 40 ------- 0 3.0 0.0 10 68
+ 0.23773 0 2 tcp 1040 ------- 0 0.0 3.0 21 69
+ 0.23773 0 2 tcp 1040 ------- 0 0.0 3.0 22 70
r 0.23845 2 3 cbr 210 ------- 0 1.0 3.1 26 48
+ 0.23875 1 2 cbr 210 ------- 0 1.0 3.1 37 71
- 0.23875 1 2 cbr 210 ------- 0 1.0 3.1 37 71
r 0.24143 1 2 cbr 210 ------- 0 1.0 3.1 37 71
+ 0.24143 2 3 cbr 210 ------- 0 1.0 3.1 37 71
+ 0.2425 1 2 cbr 210 ------- 0 1.0 3.1 38 72
- 0.2425 1 2 cbr 210 ------- 0 1.0 3.1 38 72
- 0.24405 0 2 tcp 1040 ------- 0 0.0 3.0 17 57
r 0.24505 0 2 tcp 1040 ------- 0 0.0 3.0 16 51
+ 0.24505 2 3 tcp 1040 ------- 0 0.0 3.0 16 51
r 0.24518 1 2 cbr 210 ------- 0 1.0 3.1 38 72
+ 0.24518 2 3 cbr 210 ------- 0 1.0 3.1 38 72
- 0.24577 2 3 cbr 210 ------- 0 1.0 3.1 27 52
+ 0.24625 1 2 cbr 210 ------- 0 1.0 3.1 39 73
- 0.24625 1 2 cbr 210 ------- 0 1.0 3.1 39 73
r 0.24677 2 3 tcp 1040 ------- 0 0.0 3.0 11 38
+ 0.24677 3 2 ack 40 ------- 0 3.0 0.0 11 74
- 0.24677 3 2 ack 40 ------- 0 3.0 0.0 11 74
- 0.24745 2 3 cbr 210 ------- 0 1.0 3.1 28 53
r 0.24809 3 2 ack 40 ------- 0 3.0 0.0 11 74
+ 0.24809 2 0 ack 40 ------- 0 3.0 0.0 11 74
- 0.24809 2 0 ack 40 ------- 0 3.0 0.0 11 74
r 0.24845 2 3 cbr 210 ------- 0 1.0 3.1 27 52
r 0.24893 1 2 cbr 210 ------- 0 1.0 3.1 39 73
+ 0.24893 2 3 cbr 210 ------- 0 1.0 3.1 39 73
- 0.24913 2 3 cbr 210 ------- 0 1.0 3.1 29 54
r 0.24941 2 0 ack 40 ------- 0 3.0 0.0 11 74
+ 0.24941 0 2 tcp 1040 ------- 0 0.0 3.0 23 75
+ 0.24941 0 2 tcp 1040 ------- 0 0.0 3.0 24 76
+ 0.25 1 2 cbr 210 ------- 0 1.0 3.1 40 77
- 0.25 1 2 cbr 210 ------- 0 1.0 3.1 40 77
r 0.25013 2 3 cbr 210 ------- 0 1.0 3.1 28 53
- 0.25081 2 3 tcp 1040 ------- 0 0.0 3.0 12 39
r 0.25181 2 3 cbr 210 ------- 0 1.0 3.1 29 54
- 0.25237 0 2 tcp 1040 ------- 0 0.0 3.0 18 58
r 0.25268 1 2 cbr 210 ------- 0 1.0 3.1 40 77
+ 0.25268 2 3 cbr 210 ------- 0 1.0 3.1 40 77
r 0.25337 0 2 tcp 1040 ------- 0 0.0 3.0 17 57
+ 0.25337 2 3 tcp 1040 ------- 0 0.0 3.0 17 57
+ 0.25375 1 2 cbr 210 ------- 0 1.0 3.1 41 78
- 0.25375 1 2 cbr 210 ------- 0 1.0 3.1 41 78
r 0.25643 1 2 cbr 210 ------- 0 1.0 3.1 41 78
+ 0.25643 2 3 cbr 210 ------- 0 1.0 3.1 41 78
+ 0.2575 1 2 cbr 210 ------- 0 1.0 3.1 42 79
- 0.2575 1 2 cbr 210 ------- 0 1.0 3.1 42 79
- 0.25913 2 3 cbr 210 ------- 0 1.0 3.1 30 56
r 0.26013 2 3 tcp 1040 ------- 0 0.0 3.0 12 39
+ 0.26013 3 2 ack 40 ------- 0 3.0 0.0 12 80
- 0.26013 3 2 ack 40 ------- 0 3.0 0.0 12 80
r 0.26018 1 2 cbr 210 ------- 0 1.0 3.1 42 79
+ 0.26018 2 3 cbr 210 ------- 0 1.0 3.1 42 79
- 0.26069 0 2 tcp 1040 ------- 0 0.0 3.0 19 63
- 0.26081 2 3 cbr 210 ------- 0 1.0 3.1 31 59
+ 0.26125 1 2 cbr 210 ------- 0 1.0 3.1 43 81
- 0.26125 1 2 cbr 210 ------- 0 1.0 3.1 43 81
r 0.26145 3 2 ack 40 ------- 0 3.0 0.0 12 80
+ 0.26145 2 0 ack 40 ------- 0 3.0 0.0 12 80
- 0.26145 2 0 ack 40 ------- 0 3.0 0.0 12 80
r 0.26169 0 2 tcp 1040 ------- 0 0.0 3.0 18 58
+ 0.26169 2 3 tcp 1040 ------- 0 0.0 3.0 18 58
r 0.26181 2 3 cbr 210 ------- 0 1.0 3.1 30 56
- 0.26249 2 3 tcp 1040 ------- 0 0.0 3.0 13 44
r 0.26277 2 0 ack 40 ------- 0 3.0 0.0 12 80
+ 0.26277 0 2 tcp 1040 ------- 0 0.0 3.0 25 82
+ 0.26277 0 2 tcp 1040 ------- 0 0.0 3.0 26 83
r 0.26349 2 3 cbr 210 ------- 0 1.0 3.1 31 59
r 0.26393 1 2 cbr 210 ------- 0 1.0 3.1 43 81
+ 0.26393 2 3 cbr 210 ------- 0 1.0 3.1 43 81
+ 0.265 1 2 cbr 210 ------- 0 1.0 3.1 44 84
- 0.265 1 2 cbr 210 ------- 0 1.0 3.1 44 84
r 0.26768 1 2 cbr 210 ------- 0 1.0 3.1 44 84
+ 0.26768 2 3 cbr 210 ------- 0 1.0 3.1 44 84
+ 0.26875 1 2 cbr 210 ------- 0 1.0 3.1 45 85
- 0.26875 1 2 cbr 210 ------- 0 1.0 3.1 45 85
- 0.26901 0 2 tcp 1040 ------- 0 0.0 3.0 20 64
r 0.27001 0 2 tcp 1040 ------- 0 0.0 3.0 19 63
+ 0.27001 2 3 tcp 1040 ------- 0 0.0 3.0 19 63
- 0.27081 2 3 cbr 210 ------- 0 1.0 3.1 32 60
r 0.27143 1 2 cbr 210 ------- 0 1.0 3.1 45 85
+ 0.27143 2 3 cbr 210 ------- 0 1.0 3.1 45 85
r 0.27181 2 3 tcp 1040 ------- 0 0.0 3.0 13 44
+ 0.27181 3 2 ack 40 ------- 0 3.0 0.0 13 86
- 0.27181 3 2 ack 40 ------- 0 3.0 0.0 13 86
- 0.27249 2 3 cbr 210 ------- 0 1.0 3.1 33 62
+ 0.2725 1 2 cbr 210 ------- 0 1.0 3.1 46 87
- 0.2725 1 2 cbr 210 ------- 0 1.0 3.1 46 87
r 0.27313 3 2 ack 40 ------- 0 3.0 0.0 13 86
+ 0.27313 2 0 ack 40 ------- 0 3.0 0.0 13 86
- 0.27313 2 0 ack 40 ------- 0 3.0 0.0 13 86
r 0.27349 2 3 cbr 210 ------- 0 1.0 3.1 32 60
- 0.27417 2 3 tcp 1040 ------- 0 0.0 3.0 14 45
r 0.27445 2 0 ack 40 ------- 0 3.0 0.0 13 86
+ 0.27445 0 2 tcp 1040 ------- 0 0.0 3.0 27 88
+ 0.27445 0 2 tcp 1040 ------- 0 0.0 3.0 28 89
r 0.27517 2 3 cbr 210 ------- 0 1.0 3.1 33 62
r 0.27518 1 2 cbr 210 ------- 0 1.0 3.1 46 87
+ 0.27518 2 3 cbr 210 ------- 0 1.0 3.1 46 87
+ 0.27625 1 2 cbr 210 ------- 0 1.0 3.1 47 90
- 0.27625 1 2 cbr 210 ------- 0 1.0 3.1 47 90
- 0.27733 0 2 tcp 1040 ------- 0 0.0 3.0 21 69
r 0.27833 0 2 tcp 1040 ------- 0 0.0 3.0 20 64
+ 0.27833 2 3 tcp 1040 ------- 0 0.0 3.0 20 64
r 0.27893 1 2 cbr 210 ------- 0 1.0 3.1 47 90
+ 0.27893 2 3 cbr 210 ------- 0 1.0 3.1 47 90
+ 0.28 1 2 cbr 210 ------- 0 1.0 3.1 48 91
- 0.28 1 2 cbr 210 ------- 0 1.0 3.1 48 91
- 0.28249 2 3 cbr 210 ------- 0 1.0 3.1 34 65
r 0.28268 1 2 cbr 210 ------- 0 1.0 3.1 48 91
+ 0.28268 2 3 cbr 210 ------- 0 1.0 3.1 48 91
r 0.28349 2 3 tcp 1040 ------- 0 0.0 3.0 14 45
+ 0.28349 3 2 ack 40 ------- 0 3.0 0.0 14 92
- 0.28349 3 2 ack 40 ------- 0 3.0 0.0 14 92
+ 0.28375 1 2 cbr 210 ------- 0 1.0 3.1 49 93
- 0.28375 1 2 cbr 210 ------- 0 1.0 3.1 49 93
- 0.28417 2 3 cbr 210 ------- 0 1.0 3.1 35 66
r 0.28481 3 2 ack 40 ------- 0 3.0 0.0 14 92
+ 0.28481 2 0 ack 40 ------- 0 3.0 0.0 14 92
- 0.28481 2 0 ack 40 ------- 0 3.0 0.0 14 92
r 0.28517 2 3 cbr 210 ------- 0 1.0 3.1 34 65
- 0.28565 0 2 tcp 1040 ------- 0 0.0 3.0 22 70
- 0.28585 2 3 tcp 1040 ------- 0 0.0 3.0 15 50
r 0.28613 2 0 ack 40 ------- 0 3.0 0.0 14 92
+ 0.28613 0 2 tcp 1040 ------- 0 0.0 3.0 29 94
+ 0.28613 0 2 tcp 1040 ------- 0 0.0 3.0 30 95
r 0.28643 1 2 cbr 210 ------- 0 1.0 3.1 49 93
+ 0.28643 2 3 cbr 210 ------- 0 1.0 3.1 49 93
r 0.28665 0 2 tcp 1040 ------- 0 0.0 3.0 21 69
+ 0.28665 2 3 tcp 1040 ------- 0 0.0 3.0 21 69
r 0.28685 2 3 cbr 210 ------- 0 1.0 3.1 35 66
+ 0.2875 1 2 cbr 210 ------- 0 1.0 3.1 50 96
- 0.2875 1 2 cbr 210 ------- 0 1.0 3.1 50 96
r 0.29018 1 2 cbr 210 ------- 0 1.0 3.1 50 96
+ 0.29018 2 3 cbr 210 ------- 0 1.0 3.1 50 96
+ 0.29125 1 2 cbr 210 ------- 0 1.0 3.1 51 97
- 0.29125 1 2 cbr 210 ------- 0 1.0 3.1 51 97
r 0.29393 1 2 cbr 210 ------- 0 1.0 3.1 51 97
+ 0.29393 2 3 cbr 210 ------- 0 1.0 3.1 51 97
- 0.29397 0 2 tcp 1040 ------- 0 0.0 3.0 23 75
- 0.29417 2 3 cbr 210 ------- 0 1.0 3.1 36 67
r 0.29497 0 2 tcp 1040 ------- 0 0.0 3.0 22 70
+ 0.29497 2 3 tcp 1040 ------- 0 0.0 3.0 22 70
+ 0.295 1 2 cbr 210 ------- 0 1.0 3.1 52 98
- 0.295 1 2 cbr 210 ------- 0 1.0 3.1 52 98
r 0.29517 2 3 tcp 1040 ------- 0 0.0 3.0 15 50
+ 0.29517 3 2 ack 40 ------- 0 3.0 0.0 15 99
- 0.29517 3 2 ack 40 ------- 0 3.0 0.0 15 99
- 0.29585 2 3 cbr 210 ------- 0 1.0 3.1 37 71
r 0.29649 3 2 ack 40 ------- 0 3.0 0.0 15 99
+ 0.29649 2 0 ack 40 ------- 0 3.0 0.0 15 99
- 0.29649 2 0 ack 40 ------- 0 3.0 0.0 15 99
r 0.29685 2 3 cbr 210 ------- 0 1.0 3.1 36 67
- 0.29753 2 3 tcp 1040 ------- 0 0.0 3.0 16 51
r 0.29768 1 2 cbr 210 ------- 0 1.0 3.1 52 98
+ 0.29768 2 3 cbr 210 ------- 0 1.0 3.1 52 98
r 0.29781 2 0 ack 40 ------- 0 3.0 0.0 15 99
+ 0.29781 0 2 tcp 1040 ------- 0 0.0 3.0 31 100
+ 0.29781 0 2 tcp 1040 ------- 0 0.0 3.0 32 101
r 0.29853 2 3 cbr 210 ------- 0 1.0 3.1 37 71
+ 0.29875 1 2 cbr 210 ------- 0 1.0 3.1 53 102
- 0.29875 1 2 cbr 210 ------- 0 1.0 3.1 53 102
r 0.30143 1 2 cbr 210 ------- 0 1.0 3.1 53 102
+ 0.30143 2 3 cbr 210 ------- 0 1.0 3.1 53 102
- 0.30229 0 2 tcp 1040 ------- 0 0.0 3.0 24 76
+ 0.3025 1 2 cbr 210 ------- 0 1.0 3.1 54 103
- 0.3025 1 2 cbr 210 ------- 0 1.0 3.1 54 103
r 0.30329 0 2 tcp 1040 ------- 0 0.0 3.0 23 75
+ 0.30329 2 3 tcp 1040 ------- 0 0.0 3.0 23 75
r 0.30518 1 2 cbr 210 ------- 0 1.0 3.1 54 103
+ 0.30518 2 3 cbr 210 ------- 0 1.0 3.1 54 103
- 0.30585 2 3 cbr 210 ------- 0 1.0 3.1 38 72
+ 0.30625 1 2 cbr 210 ------- 0 1.0 3.1 55 104
- 0.30625 1 2 cbr 210 ------- 0 1.0 3.1 55 104
r 0.30685 2 3 tcp 1040 ------- 0 0.0 3.0 16 51
+ 0.30685 3 2 ack 40 ------- 0 3.0 0.0 16 105
- 0.30685 3 2 ack 40 ------- 0 3.0 0.0 16 105
- 0.30753 2 3 cbr 210 ------- 0 1.0 3.1 39 73
r 0.30817 3 2 ack 40 ------- 0 3.0 0.0 16 105
+ 0.30817 2 0 ack 40 ------- 0 3.0 0.0 16 105
- 0.30817 2 0 ack 40 ------- 0 3.0 0.0 16 105
r 0.30853 2 3 cbr 210 ------- 0 1.0 3.1 38 72
r 0.30893 1 2 cbr 210 ------- 0 1.0 3.1 55 104
+ 0.30893 2 3 cbr 210 ------- 0 1.0 3.1 55 104
- 0.30921 2 3 cbr 210 ------- 0 1.0 3.1 40 77
r 0.30949 2 0 ack 40 ------- 0 3.0 0.0 16 105
+ 0.30949 0 2 tcp 1040 ------- 0 0.0 3.0 33 106
+ 0.30949 0 2 tcp 1040 ------- 0 0.0 3.0 34 107
+ 0.31 1 2 cbr 210 ------- 0 1.0 3.1 56 108
- 0.31 1 2 cbr 210 ------- 0 1.0 3.1 56 108
r 0.31021 2 3 cbr 210 ------- 0 1.0 3.1 39 73
- 0.31061 0 2 tcp 1040 ------- 0 0.0 3.0 25 82
- 0.31089 2 3 tcp 1040 ------- 0 0.0 3.0 17 57
r 0.31161 0 2 tcp 1040 ------- 0 0.0 3.0 24 76
+ 0.31161 2 3 tcp 1040 ------- 0 0.0 3.0 24 76
r 0.31189 2 3 cbr 210 ------- 0 1.0 3.1 40 77
r 0.31268 1 2 cbr 210 ------- 0 1.0 3.1 56 108
+ 0.31268 2 3 cbr 210 ------- 0 1.0 3.1 56 108
+ 0.31375 1 2 cbr 210 ------- 0 1.0 3.1 57 109
- 0.31375 1 2 cbr 210 ------- 0 1.0 3.1 57 109
r 0.31643 1 2 cbr 210 ------- 0 1.0 3.1 57 109
+ 0.31643 2 3 cbr 210 ------- 0 1.0 3.1 57 109
+ 0.3175 1 2 cbr 210 ------- 0 1.0 3.1 58 110
- 0.3175 1 2 cbr 210 ------- 0 1.0 3.1 58 110
- 0.31893 0 2 tcp 1040 ------- 0 0.0 3.0 26 83
- 0.31921 2 3 cbr 210 ------- 0 1.0 3.1 41 78
r 0.31993 0 2 tcp 1040 ------- 0 0.0 3.0 25 82
+ 0.31993 2 3 tcp 1040 ------- 0 0.0 3.0 25 82
r 0.32018 1 2 cbr 210 ------- 0 1.0 3.1 58 110
+ 0.32018 2 3 cbr 210 ------- 0 1.0 3.1 58 110
r 0.32021 2 3 tcp 1040 ------- 0 0.0 3.0 17 57
+ 0.32021 3 2 ack 40 ------- 0 3.0 0.0 17 111
- 0.32021 3 2 ack 40 ------- 0 3.0 0.0 17 111
- 0.32089 2 3 cbr 210 ------- 0 1.0 3.1 42 79
+ 0.32125 1 2 cbr 210 ------- 0 1.0 3.1 59 112
- 0.32125 1 2 cbr 210 ------- 0 1.0 3.1 59 112
r 0.32153 3 2 ack 40 ------- 0 3.0 0.0 17 111
+ 0.32153 2 0 ack 40 ------- 0 3.0 0.0 17 111
- 0.32153 2 0 ack 40 ------- 0 3.0 0.0 17 111
r 0.32189 2 3 cbr 210 ------- 0 1.0 3.1 41 78
- 0.32257 2 3 tcp 1040 ------- 0 0.0 3.0 18 58
r 0.32285 2 0 ack 40 ------- 0 3.0 0.0 17 111
+ 0.32285 0 2 tcp 1040 ------- 0 0.0 3.0 35 113
+ 0.32285 0 2 tcp 1040 ------- 0 0.0 3.0 36 114
r 0.32357 2 3 cbr 210 ------- 0 1.0 3.1 42 79
r 0.32393 1 2 cbr 210 ------- 0 1.0 3.1 59 112
+ 0.32393 2 3 cbr 210 ------- 0 1.0 3.1 59 112
+ 0.325 1 2 cbr 210 ------- 0 1.0 3.1 60 115
- 0.325 1 2 cbr 210 ------- 0 1.0 3.1 60 115
- 0.32725 0 2 tcp 1040 ------- 0 0.0 3.0 27 88
r 0.32768 1 2 cbr 210 ------- 0 1.0 3.1 60 115
+ 0.32768 2 3 cbr 210 ------- 0 1.0 3.1 60 115
r 0.32825 0 2 tcp 1040 ------- 0 0.0 3.0 26 83
+ 0.32825 2 3 tcp 1040 ------- 0 0.0 3.0 26 83
+ 0.32875 1 2 cbr 210 ------- 0 1.0 3.1 61 116
- 0.32875 1 2 cbr 210 ------- 0 1.0 3.1 61 116
- 0.33089 2 3 cbr 210 ------- 0 1.0 3.1 43 81
r 0.33143 1 2 cbr 210 ------- 0 1.0 3.1 61 116
+ 0.33143 2 3 cbr 210 ------- 0 1.0 3.1 61 116
r 0.33189 2 3 tcp 1040 ------- 0 0.0 3.0 18 58
+ 0.33189 3 2 ack 40 ------- 0 3.0 0.0 18 117
- 0.33189 3 2 ack 40 ------- 0 3.0 0.0 18 117
+ 0.3325 1 2 cbr 210 ------- 0 1.0 3.1 62 118
- 0.3325 1 2 cbr 210 ------- 0 1.0 3.1 62 118
- 0.33257 2 3 cbr 210 ------- 0 1.0 3.1 44 84
r 0.33321 3 2 ack 40 ------- 0 3.0 0.0 18 117
+ 0.33321 2 0 ack 40 ------- 0 3.0 0.0 18 117
- 0.33321 2 0 ack 40 ------- 0 3.0 0.0 18 117
r 0.33357 2 3 cbr 210 ------- 0 1.0 3.1 43 81
- 0.33425 2 3 tcp 1040 ------- 0 0.0 3.0 19 63
r 0.33453 2 0 ack 40 ------- 0 3.0 0.0 18 117
+ 0.33453 0 2 tcp 1040 ------- 0 0.0 3.0 37 119
+ 0.33453 0 2 tcp 1040 ------- 0 0.0 3.0 38 120
r 0.33518 1 2 cbr 210 ------- 0 1.0 3.1 62 118
+ 0.33518 2 3 cbr 210 ------- 0 1.0 3.1 62 118
r 0.33525 2 3 cbr 210 ------- 0 1.0 3.1 44 84
- 0.33557 0 2 tcp 1040 ------- 0 0.0 3.0 28 89
+ 0.33625 1 2 cbr 210 ------- 0 1.0 3.1 63 121
- 0.33625 1 2 cbr 210 ------- 0 1.0 3.1 63 121
r 0.33657 0 2 tcp 1040 ------- 0 0.0 3.0 27 88
+ 0.33657 2 3 tcp 1040 ------- 0 0.0 3.0 27 88
r 0.33893 1 2 cbr 210 ------- 0 1.0 3.1 63 121
+ 0.33893 2 3 cbr 210 ------- 0 1.0 3.1 63 121
+ 0.34 1 2 cbr 210 ------- 0 1.0 3.1 64 122
- 0.34 1 2 cbr 210 ------- 0 1.0 3.1 64 122
- 0.34257 2 3 cbr 210 ------- 0 1.0 3.1 45 85
r 0.34268 1 2 cbr 210 ------- 0 1.0 3.1 64 122
+ 0.34268 2 3 cbr 210 ------- 0 1.0 3.1 64 122
r 0.34357 2 3 tcp 1040 ------- 0 0.0 3.0 19 63
+ 0.34357 3 2 ack 40 ------- 0 3.0 0.0 19 123
- 0.34357 3 2 ack 40 ------- 0 3.0 0.0 19 123
+ 0.34375 1 2 cbr 210 ------- 0 1.0 3.1 65 124
- 0.34375 1 2 cbr 210 ------- 0 1.0 3.1 65 124
- 0.34389 0 2 tcp 1040 ------- 0 0.0 3.0 29 94
- 0.34425 2 3 cbr 210 ------- 0 1.0 3.1 46 87
r 0.34489 3 2 ack 40 ------- 0 3.0 0.0 19 123
+ 0.34489 2 0 ack 40 ------- 0 3.0 0.0 19 123
- 0.34489 2 0 ack 40 ------- 0 3.0 0.0 19 123
r 0.34489 0 2 tcp 1040 ------- 0 0.0 3.0 28 89
+ 0.34489 2 3 tcp 1040 ------- 0 0.0 3.0 28 89
r 0.34525 2 3 cbr 210 ------- 0 1.0 3.1 45 85
- 0.34593 2 3 tcp 1040 ------- 0 0.0 3.0 20 64
r 0.34621 2 0 ack 40 ------- 0 3.0 0.0 19 123
+ 0.34621 0 2 tcp 1040 ------- 0 0.0 3.0 39 125
r 0.34643 1 2 cbr 210 ------- 0 1.0 3.1 65 124
+ 0.34643 2 3 cbr 210 ------- 0 1.0 3.1 65 124
r 0.34693 2 3 cbr 210 ------- 0 1.0 3.1 46 87
+ 0.3475 1 2 cbr 210 ------- 0 1.0 3.1 66 126
- 0.3475 1 2 cbr 210 ------- 0 1.0 3.1 66 126
r 0.35018 1 2 cbr 210 ------- 0 1.0 3.1 66 126
+ 0.35018 2 3 cbr 210 ------- 0 1.0 3.1 66 126
+ 0.35125 1 2 cbr 210 ------- 0 1.0 3.1 67 127
- 0.35125 1 2 cbr 210 ------- 0 1.0 3.1 67 127
- 0.35221 0 2 tcp 1040 ------- 0 0.0 3.0 30 95
r 0.35321 0 2 tcp 1040 ------- 0 0.0 3.0 29 94
+ 0.35321 2 3 tcp 1040 ------- 0 0.0 3.0 29 94
r 0.35393 1 2 cbr 210 ------- 0 1.0 3.1 67 127