V -t * -v 1.0a5 -a 0
A -t * -n 1 -p 0 -o 0x7fffffff -c 30 -a 1
A -t * -h 1 -m 1073741823 -s 0
c -t * -i 1 -n blue
n -t * -a 0 -s 0 -S UP -v circle -c yellow -i yellow
n -t * -a 1 -s 1 -S UP -v circle -c black -i black
n -t * -a 2 -s 2 -S UP -v circle -c orange -i orange
l -t * -s 0 -d 1 -S UP -r 5000000 -D 0.0080000000000000002 -c black
l -t * -s 2 -d 1 -S UP -r 5000000 -D 0.0080000000000000002 -c black
+ -t 0.1 -s 0 -d 1 -p tcp -e 40 -c 1 -i 0 -a 1 -x {0.0 1.0 0 ------- null}
- -t 0.1 -s 0 -d 1 -p tcp -e 40 -c 1 -i 0 -a 1 -x {0.0 1.0 0 ------- null}
h -t 0.1 -s 0 -d 1 -p tcp -e 40 -c 1 -i 0 -a 1 -x {0.0 1.0 -1 ------- null}
+ -t 0.1 -s 2 -d 1 -p tcp -e 40 -c 2 -i 1 -a 2 -x {2.0 1.1 0 ------- null}
- -t 0.1 -s 2 -d 1 -p tcp -e 40 -c 2 -i 1 -a 2 -x {2.0 1.1 0 ------- null}
h -t 0.1 -s 2 -d 1 -p tcp -e 40 -c 2 -i 1 -a 2 -x {2.0 1.1 -1 ------- null}
r -t 0.108064 -s 0 -d 1 -p tcp -e 40 -c 1 -i 0 -a 1 -x {0.0 1.0 0 ------- null}
+ -t 0.108064 -s 1 -d 0 -p ack -e 40 -c 1 -i 2 -a 1 -x {1.0 0.0 0 ------- null}
- -t 0.108064 -s 1 -d 0 -p ack -e 40 -c 1 -i 2 -a 1 -x {1.0 0.0 0 ------- null}
h -t 0.108064 -s 1 -d 0 -p ack -e 40 -c 1 -i 2 -a 1 -x {1.0 0.0 -1 ------- null}
r -t 0.108064 -s 2 -d 1 -p tcp -e 40 -c 2 -i 1 -a 2 -x {2.0 1.1 0 ------- null}
+ -t 0.108064 -s 1 -d 2 -p ack -e 40 -c 2 -i 3 -a 2 -x {1.1 2.0 0 ------- null}
- -t 0.108064 -s 1 -d 2 -p ack -e 40 -c 2 -i 3 -a 2 -x {1.1 2.0 0 ------- null}
h -t 0.108064 -s 1 -d 2 -p ack -e 40 -c 2 -i 3 -a 2 -x {1.1 2.0 -1 ------- null}
r -t 0.116128 -s 1 -d 0 -p ack -e 40 -c 1 -i 2 -a 1 -x {1.0 0.0 0 ------- null}
+ -t 0.116128 -s 0 -d 1 -p tcp -e 1040 -c 1 -i 4 -a 1 -x {0.0 1.0 1 ------- null}
- -t 0.116128 -s 0 -d 1 -p tcp -e 1040 -c 1 -i 4 -a 1 -x {0.0 1.0 1 ------- null}
h -t 0.116128 -s 0 -d 1 -p tcp -e 1040 -c 1 -i 4 -a 1 -x {0.0 1.0 -1 ------- null}
+ -t 0.116128 -s 0 -d 1 -p tcp -e 1040 -c 1 -i 5 -a 1 -x {0.0 1.0 2 ------- null}
r -t 0.116128 -s 1 -d 2 -p ack -e 40 -c 2 -i 3 -a 2 -x {1.1 2.0 0 ------- null}
+ -t 0.116128 -s 2 -d 1 -p tcp -e 1040 -c 2 -i 6 -a 2 -x {2.0 1.1 1 ------- null}
- -t 0.116128 -s 2 -d 1 -p tcp -e 1040 -c 2 -i 6 -a 2 -x {2.0 1.1 1 ------- null}
h -t 0.116128 -s 2 -d 1 -p tcp -e 1040 -c 2 -i 6 -a 2 -x {2.0 1.1 -1 ------- null}
+ -t 0.116128 -s 2 -d 1 -p tcp -e 1040 -c 2 -i 7 -a 2 -x {2.0 1.1 2 ------- null}
- -t 0.117792 -s 0 -d 1 -p tcp -e 1040 -c 1 -i 5 -a 1 -x {0.0 1.0 2 ------- null}
h -t 0.117792 -s 0 -d 1 -p tcp -e 1040 -c 1 -i 5 -a 1 -x {0.0 1.0 -1 ------- null}
- -t 0.117792 -s 2 -d 1 -p tcp -e 1040 -c 2 -i 7 -a 2 -x {2.0 1.1 2 ------- null}
h -t 0.117792 -s 2 -d 1 -p tcp -e 1040 -c 2 -i 7 -a 2 -x {2.0 1.1 -1 ------- null}
r -t 0.125792 -s 0 -d 1 -p tcp -e 1040 -c 1 -i 4 -a 1 -x {0.0 1.0 1 ------- null}
+ -t 0.125792 -s 1 -d 0 -p ack -e 40 -c 1 -i 8 -a 1 -x {1.0 0.0 1 ------- null}
- -t 0.125792 -s 1 -d 0 -p ack -e 40 -c 1 -i 8 -a 1 -x {1.0 0.0 1 ------- null}
h -t 0.125792 -s 1 -d 0 -p ack -e 40 -c 1 -i 8 -a 1 -x {1.0 0.0 -1 ------- null}
r -t 0.125792 -s 2 -d 1 -p tcp -e 1040 -c 2 -i 6 -a 2 -x {2.0 1.1 1 ------- null}
+ -t 0.125792 -s 1 -d 2 -p ack -e 40 -c 2 -i 9 -a 2 -x {1.1 2.0 1 ------- null}
- -t 0.125792 -s 1 -d 2 -p ack -e 40 -c 2 -i 9 -a 2 -x {1.1 2.0 1 ------- null}
h -t 0.125792 -s 1 -d 2 -p ack -e 40 -c 2 -i 9 -a 2 -x {1.1 2.0 -1 ------- null}
r -t 0.127456 -s 0 -d 1 -p tcp -e 1040 -c 1 -i 5 -a 1 -x {0.0 1.0 2 ------- null}
+ -t 0.127456 -s 1 -d 0 -p ack -e 40 -c 1 -i 10 -a 1 -x {1.0 0.0 2 ------- null}
- -t 0.127456 -s 1 -d 0 -p ack -e 40 -c 1 -i 10 -a 1 -x {1.0 0.0 2 ------- null}
h -t 0.127456 -s 1 -d 0 -p ack -e 40 -c 1 -i 10 -a 1 -x {1.0 0.0 -1 ------- null}
r -t 0.127456 -s 2 -d 1 -p tcp -e 1040 -c 2 -i 7 -a 2 -x {2.0 1.1 2 ------- null}
+ -t 0.127456 -s 1 -d 2 -p ack -e 40 -c 2 -i 11 -a 2 -x {1.1 2.0 2 ------- null}
- -t 0.127456 -s 1 -d 2 -p ack -e 40 -c 2 -i 11 -a 2 -x {1.1 2.0 2 ------- null}
h -t 0.127456 -s 1 -d 2 -p ack -e 40 -c 2 -i 11 -a 2 -x {1.1 2.0 -1 ------- null}
r -t 0.133856 -s 1 -d 0 -p ack -e 40 -c 1 -i 8 -a 1 -x {1.0 0.0 1 ------- null}
+ -t 0.133856 -s 0 -d 1 -p tcp -e 1040 -c 1 -i 12 -a 1 -x {0.0 1.0 3 ------- null}
- -t 0.133856 -s 0 -d 1 -p tcp -e 1040 -c 1 -i 12 -a 1 -x {0.0 1.0 3 ------- null}
h -t 0.133856 -s 0 -d 1 -p tcp -e 1040 -c 1 -i 12 -a 1 -x {0.0 1.0 -1 ------- null}
+ -t 0.133856 -s 0 -d 1 -p tcp -e 1040 -c 1 -i 13 -a 1 -x {0.0 1.0 4 ------- null}
r -t 0.133856 -s 1 -d 2 -p ack -e 40 -c 2 -i 9 -a 2 -x {1.1 2.0 1 ------- null}
+ -t 0.133856 -s 2 -d 1 -p tcp -e 1040 -c 2 -i 14 -a 2 -x {2.0 1.1 3 ------- null}
- -t 0.133856 -s 2 -d 1 -p tcp -e 1040 -c 2 -i 14 -a 2 -x {2.0 1.1 3 ------- null}
h -t 0.133856 -s 2 -d 1 -p tcp -e 1040 -c 2 -i 14 -a 2 -x {2.0 1.1 -1 ------- null}
+ -t 0.133856 -s 2 -d 1 -p tcp -e 1040 -c 2 -i 15 -a 2 -x {2.0 1.1 4 ------- null}
r -t 0.13552 -s 1 -d 0 -p ack -e 40 -c 1 -i 10 -a 1 -x {1.0 0.0 2 ------- null}
+ -t 0.13552 -s 0 -d 1 -p tcp -e 1040 -c 1 -i 16 -a 1 -x {0.0 1.0 5 ------- null}
+ -t 0.13552 -s 0 -d 1 -p tcp -e 1040 -c 1 -i 17 -a 1 -x {0.0 1.0 6 ------- null}
d -t 0.13552 -s 0 -d 1 -p tcp -e 1040 -c 1 -i 17 -a 1 -x {0.0 1.0 6 ------- null}
r -t 0.13552 -s 1 -d 2 -p ack -e 40 -c 2 -i 11 -a 2 -x {1.1 2.0 2 ------- null}
+ -t 0.13552 -s 2 -d 1 -p tcp -e 1040 -c 2 -i 18 -a 2 -x {2.0 1.1 5 ------- null}
+ -t 0.13552 -s 2 -d 1 -p tcp -e 1040 -c 2 -i 19 -a 2 -x {2.0 1.1 6 ------- null}
d -t 0.13552 -s 2 -d 1 -p tcp -e 1040 -c 2 -i 19 -a 2 -x {2.0 1.1 6 ------- null}
- -t 0.13552 -s 0 -d 1 -p tcp -e 1040 -c 1 -i 13 -a 1 -x {0.0 1.0 4 ------- null}
h -t 0.13552 -s 0 -d 1 -p tcp -e 1040 -c 1 -i 13 -a 1 -x {0.0 1.0 -1 ------- null}
- -t 0.13552 -s 2 -d 1 -p tcp -e 1040 -c 2 -i 15 -a 2 -x {2.0 1.1 4 ------- null}
h -t 0.13552 -s 2 -d 1 -p tcp -e 1040 -c 2 -i 15 -a 2 -x {2.0 1.1 -1 ------- null}
- -t 0.137184 -s 0 -d 1 -p tcp -e 1040 -c 1 -i 16 -a 1 -x {0.0 1.0 5 ------- null}
h -t 0.137184 -s 0 -d 1 -p tcp -e 1040 -c 1 -i 16 -a 1 -x {0.0 1.0 -1 ------- null}
- -t 0.137184 -s 2 -d 1 -p tcp -e 1040 -c 2 -i 18 -a 2 -x {2.0 1.1 5 ------- null}
h -t 0.137184 -s 2 -d 1 -p tcp -e 1040 -c 2 -i 18 -a 2 -x {2.0 1.1 -1 ------- null}
r -t 0.14352 -s 0 -d 1 -p tcp -e 1040 -c 1 -i 12 -a 1 -x {0.0 1.0 3 ------- null}
+ -t 0.14352 -s 1 -d 0 -p ack -e 40 -c 1 -i 20 -a 1 -x {1.0 0.0 3 ------- null}
- -t 0.14352 -s 1 -d 0 -p ack -e 40 -c 1 -i 20 -a 1 -x {1.0 0.0 3 ------- null}
h -t 0.14352 -s 1 -d 0 -p ack -e 40 -c 1 -i 20 -a 1 -x {1.0 0.0 -1 ------- null}
r -t 0.14352 -s 2 -d 1 -p tcp -e 1040 -c 2 -i 14 -a 2 -x {2.0 1.1 3 ------- null}
+ -t 0.14352 -s 1 -d 2 -p ack -e 40 -c 2 -i 21 -a 2 -x {1.1 2.0 3 ------- null}
- -t 0.14352 -s 1 -d 2 -p ack -e 40 -c 2 -i 21 -a 2 -x {1.1 2.0 3 ------- null}
h -t 0.14352 -s 1 -d 2 -p ack -e 40 -c 2 -i 21 -a 2 -x {1.1 2.0 -1 ------- null}
r -t 0.145184 -s 0 -d 1 -p tcp -e 1040 -c 1 -i 13 -a 1 -x {0.0 1.0 4 ------- null}
+ -t 0.145184 -s 1 -d 0 -p ack -e 40 -c 1 -i 22 -a 1 -x {1.0 0.0 4 ------- null}
- -t 0.145184 -s 1 -d 0 -p ack -e 40 -c 1 -i 22 -a 1 -x {1.0 0.0 4 ------- null}
h -t 0.145184 -s 1 -d 0 -p ack -e 40 -c 1 -i 22 -a 1 -x {1.0 0.0 -1 ------- null}
r -t 0.145184 -s 2 -d 1 -p tcp -e 1040 -c 2 -i 15 -a 2 -x {2.0 1.1 4 ------- null}
+ -t 0.145184 -s 1 -d 2 -p ack -e 40 -c 2 -i 23 -a 2 -x {1.1 2.0 4 ------- null}
- -t 0.145184 -s 1 -d 2 -p ack -e 40 -c 2 -i 23 -a 2 -x {1.1 2.0 4 ------- null}
h -t 0.145184 -s 1 -d 2 -p ack -e 40 -c 2 -i 23 -a 2 -x {1.1 2.0 -1 ------- null}
r -t 0.146848 -s 0 -d 1 -p tcp -e 1040 -c 1 -i 16 -a 1 -x {0.0 1.0 5 ------- null}
+ -t 0.146848 -s 1 -d 0 -p ack -e 40 -c 1 -i 24 -a 1 -x {1.0 0.0 5 ------- null}
- -t 0.146848 -s 1 -d 0 -p ack -e 40 -c 1 -i 24 -a 1 -x {1.0 0.0 5 ------- null}
h -t 0.146848 -s 1 -d 0 -p ack -e 40 -c 1 -i 24 -a 1 -x {1.0 0.0 -1 ------- null}
r -t 0.146848 -s 2 -d 1 -p tcp -e 1040 -c 2 -i 18 -a 2 -x {2.0 1.1 5 ------- null}
+ -t 0.146848 -s 1 -d 2 -p ack -e 40 -c 2 -i 25 -a 2 -x {1.1 2.0 5 ------- null}
- -t 0.146848 -s 1 -d 2 -p ack -e 40 -c 2 -i 25 -a 2 -x {1.1 2.0 5 ------- null}
h -t 0.146848 -s 1 -d 2 -p ack -e 40 -c 2 -i 25 -a 2 -x {1.1 2.0 -1 ------- null}
r -t 0.151584 -s 1 -d 0 -p ack -e 40 -c 1 -i 20 -a 1 -x {1.0 0.0 3 ------- null}
+ -t 0.151584 -s 0 -d 1 -p tcp -e 1040 -c 1 -i 26 -a 1 -x {0.0 1.0 7 ------- null}
- -t 0.151584 -s 0 -d 1 -p tcp -e 1040 -c 1 -i 26 -a 1 -x {0.0 1.0 7 ------- null}
h -t 0.151584 -s 0 -d 1 -p tcp -e 1040 -c 1 -i 26 -a 1 -x {0.0 1.0 -1 ------- null}
+ -t 0.151584 -s 0 -d 1 -p tcp -e 1040 -c 1 -i 27 -a 1 -x {0.0 1.0 8 ------- null}
r -t 0.151584 -s 1 -d 2 -p ack -e 40 -c 2 -i 21 -a 2 -x {1.1 2.0 3 ------- null}
+ -t 0.151584 -s 2 -d 1 -p tcp -e 1040 -c 2 -i 28 -a 2 -x {2.0 1.1 7 ------- null}
- -t 0.151584 -s 2 -d 1 -p tcp -e 1040 -c 2 -i 28 -a 2 -x {2.0 1.1 7 ------- null}
h -t 0.151584 -s 2 -d 1 -p tcp -e 1040 -c 2 -i 28 -a 2 -x {2.0 1.1 -1 ------- null}
+ -t 0.151584 -s 2 -d 1 -p tcp -e 1040 -c 2 -i 29 -a 2 -x {2.0 1.1 8 ------- null}
r -t 0.153248 -s 1 -d 0 -p ack -e 40 -c 1 -i 22 -a 1 -x {1.0 0.0 4 ------- null}
+ -t 0.153248 -s 0 -d 1 -p tcp -e 1040 -c 1 -i 30 -a 1 -x {0.0 1.0 9 ------- null}
+ -t 0.153248 -s 0 -d 1 -p tcp -e 1040 -c 1 -i 31 -a 1 -x {0.0 1.0 10 ------- null}
d -t 0.153248 -s 0 -d 1 -p tcp -e 1040 -c 1 -i 31 -a 1 -x {0.0 1.0 10 ------- null}
r -t 0.153248 -s 1 -d 2 -p ack -e 40 -c 2 -i 23 -a 2 -x {1.1 2.0 4 ------- null}
+ -t 0.153248 -s 2 -d 1 -p tcp -e 1040 -c 2 -i 32 -a 2 -x {2.0 1.1 9 ------- null}
+ -t 0.153248 -s 2 -d 1 -p tcp -e 1040 -c 2 -i 33 -a 2 -x {2.0 1.1 10 ------- null}
d -t 0.153248 -s 2 -d 1 -p tcp -e 1040 -c 2 -i 33 -a 2 -x {2.0 1.1 10 ------- null}
- -t 0.153248 -s 0 -d 1 -p tcp -e 1040 -c 1 -i 27 -a 1 -x {0.0 1.0 8 ------- null}
h -t 0.153248 -s 0 -d 1 -p tcp -e 1040 -c 1 -i 27 -a 1 -x {0.0 1.0 -1 ------- null}
- -t 0.153248 -s 2 -d 1 -p tcp -e 1040 -c 2 -i 29 -a 2 -x {2.0 1.1 8 ------- null}
h -t 0.153248 -s 2 -d 1 -p tcp -e 1040 -c 2 -i 29 -a 2 -x {2.0 1.1 -1 ------- null}
r -t 0.154912 -s 1 -d 0 -p ack -e 40 -c 1 -i 24 -a 1 -x {1.0 0.0 5 ------- null}
+ -t 0.154912 -s 0 -d 1 -p tcp -e 1040 -c 1 -i 34 -a 1 -x {0.0 1.0 11 ------- null}
+ -t 0.154912 -s 0 -d 1 -p tcp -e 1040 -c 1 -i 35 -a 1 -x {0.0 1.0 12 ------- null}
d -t 0.154912 -s 0 -d 1 -p tcp -e 1040 -c 1 -i 35 -a 1 -x {0.0 1.0 12 ------- null}
r -t 0.154912 -s 1 -d 2 -p ack -e 40 -c 2 -i 25 -a 2 -x {1.1 2.0 5 ------- null}
+ -t 0.154912 -s 2 -d 1 -p tcp -e 1040 -c 2 -i 36 -a 2 -x {2.0 1.1 11 ------- null}
+ -t 0.154912 -s 2 -d 1 -p tcp -e 1040 -c 2 -i 37 -a 2 -x {2.0 1.1 12 ------- null}
d -t 0.154912 -s 2 -d 1 -p tcp -e 1040 -c 2 -i 37 -a 2 -x {2.0 1.1 12 ------- null}
- -t 0.154912 -s 0 -d 1 -p tcp -e 1040 -c 1 -i 30 -a 1 -x {0.0 1.0 9 ------- null}
h -t 0.154912 -s 0 -d 1 -p tcp -e 1040 -c 1 -i 30 -a 1 -x {0.0 1.0 -1 ------- null}
- -t 0.154912 -s 2 -d 1 -p tcp -e 1040 -c 2 -i 32 -a 2 -x {2.0 1.1 9 ------- null}
h -t 0.154912 -s 2 -d 1 -p tcp -e 1040 -c 2 -i 32 -a 2 -x {2.0 1.1 -1 ------- null}
- -t 0.156576 -s 0 -d 1 -p tcp -e 1040 -c 1 -i 34 -a 1 -x {0.0 1.0 11 ------- null}
h -t 0.156576 -s 0 -d 1 -p tcp -e 1040 -c 1 -i 34 -a 1 -x {0.0 1.0 -1 ------- null}
- -t 0.156576 -s 2 -d 1 -p tcp -e 1040 -c 2 -i 36 -a 2 -x {2.0 1.1 11 ------- null}
h -t 0.156576 -s 2 -d 1 -p tcp -e 1040 -c 2 -i 36 -a 2 -x {2.0 1.1 -1 ------- null}
r -t 0.161248 -s 0 -d 1 -p tcp -e 1040 -c 1 -i 26 -a 1 -x {0.0 1.0 7 ------- null}
+ -t 0.161248 -s 1 -d 0 -p ack -e 40 -c 1 -i 38 -a 1 -x {1.0 0.0 5 ------- null}
- -t 0.161248 -s 1 -d 0 -p ack -e 40 -c 1 -i 38 -a 1 -x {1.0 0.0 5 ------- null}
h -t 0.161248 -s 1 -d 0 -p ack -e 40 -c 1 -i 38 -a 1 -x {1.0 0.0 -1 ------- null}
r -t 0.161248 -s 2 -d 1 -p tcp -e 1040 -c 2 -i 28 -a 2 -x {2.0 1.1 7 ------- null}
+ -t 0.161248 -s 1 -d 2 -p ack -e 40 -c 2 -i 39 -a 2 -x {1.1 2.0 5 ------- null}
- -t 0.161248 -s 1 -d 2 -p ack -e 40 -c 2 -i 39 -a 2 -x {1.1 2.0 5 ------- null}
h -t 0.161248 -s 1 -d 2 -p ack -e 40 -c 2 -i 39 -a 2 -x {1.1 2.0 -1 ------- null}
r -t 0.162912 -s 0 -d 1 -p tcp -e 1040 -c 1 -i 27 -a 1 -x {0.0 1.0 8 ------- null}
+ -t 0.162912 -s 1 -d 0 -p ack -e 40 -c 1 -i 40 -a 1 -x {1.0 0.0 5 ------- null}
- -t 0.162912 -s 1 -d 0 -p ack -e 40 -c 1 -i 40 -a 1 -x {1.0 0.0 5 ------- null}
h -t 0.162912 -s 1 -d 0 -p ack -e 40 -c 1 -i 40 -a 1 -x {1.0 0.0 -1 ------- null}
r -t 0.162912 -s 2 -d 1 -p tcp -e 1040 -c 2 -i 29 -a 2 -x {2.0 1.1 8 ------- null}
+ -t 0.162912 -s 1 -d 2 -p ack -e 40 -c 2 -i 41 -a 2 -x {1.1 2.0 5 ------- null}
- -t 0.162912 -s 1 -d 2 -p ack -e 40 -c 2 -i 41 -a 2 -x {1.1 2.0 5 ------- null}
h -t 0.162912 -s 1 -d 2 -p ack -e 40 -c 2 -i 41 -a 2 -x {1.1 2.0 -1 ------- null}
r -t 0.164576 -s 0 -d 1 -p tcp -e 1040 -c 1 -i 30 -a 1 -x {0.0 1.0 9 ------- null}
+ -t 0.164576 -s 1 -d 0 -p ack -e 40 -c 1 -i 42 -a 1 -x {1.0 0.0 5 ------- null}
- -t 0.164576 -s 1 -d 0 -p ack -e 40 -c 1 -i 42 -a 1 -x {1.0 0.0 5 ------- null}
h -t 0.164576 -s 1 -d 0 -p ack -e 40 -c 1 -i 42 -a 1 -x {1.0 0.0 -1 ------- null}
r -t 0.164576 -s 2 -d 1 -p tcp -e 1040 -c 2 -i 32 -a 2 -x {2.0 1.1 9 ------- null}
+ -t 0.164576 -s 1 -d 2 -p ack -e 40 -c 2 -i 43 -a 2 -x {1.1 2.0 5 ------- null}
- -t 0.164576 -s 1 -d 2 -p ack -e 40 -c 2 -i 43 -a 2 -x {1.1 2.0 5 ------- null}
h -t 0.164576 -s 1 -d 2 -p ack -e 40 -c 2 -i 43 -a 2 -x {1.1 2.0 -1 ------- null}
r -t 0.16624 -s 0 -d 1 -p tcp -e 1040 -c 1 -i 34 -a 1 -x {0.0 1.0 11 ------- null}
+ -t 0.16624 -s 1 -d 0 -p ack -e 40 -c 1 -i 44 -a 1 -x {1.0 0.0 5 ------- null}
- -t 0.16624 -s 1 -d 0 -p ack -e 40 -c 1 -i 44 -a 1 -x {1.0 0.0 5 ------- null}
h -t 0.16624 -s 1 -d 0 -p ack -e 40 -c 1 -i 44 -a 1 -x {1.0 0.0 -1 ------- null}
r -t 0.16624 -s 2 -d 1 -p tcp -e 1040 -c 2 -i 36 -a 2 -x {2.0 1.1 11 ------- null}
+ -t 0.16624 -s 1 -d 2 -p ack -e 40 -c 2 -i 45 -a 2 -x {1.1 2.0 5 ------- null}
- -t 0.16624 -s 1 -d 2 -p ack -e 40 -c 2 -i 45 -a 2 -x {1.1 2.0 5 ------- null}
h -t 0.16624 -s 1 -d 2 -p ack -e 40 -c 2 -i 45 -a 2 -x {1.1 2.0 -1 ------- null}
r -t 0.169312 -s 1 -d 0 -p ack -e 40 -c 1 -i 38 -a 1 -x {1.0 0.0 5 ------- null}
+ -t 0.169312 -s 0 -d 1 -p tcp -e 1040 -c 1 -i 46 -a 1 -x {0.0 1.0 13 ------- null}
- -t 0.169312 -s 0 -d 1 -p tcp -e 1040 -c 1 -i 46 -a 1 -x {0.0 1.0 13 ------- null}
h -t 0.169312 -s 0 -d 1 -p tcp -e 1040 -c 1 -i 46 -a 1 -x {0.0 1.0 -1 ------- null}
r -t 0.169312 -s 1 -d 2 -p ack -e 40 -c 2 -i 39 -a 2 -x {1.1 2.0 5 ------- null}
+ -t 0.169312 -s 2 -d 1 -p tcp -e 1040 -c 2 -i 47 -a 2 -x {2.0 1.1 13 ------- null}
- -t 0.169312 -s 2 -d 1 -p tcp -e 1040 -c 2 -i 47 -a 2 -x {2.0 1.1 13 ------- null}
h -t 0.169312 -s 2 -d 1 -p tcp -e 1040 -c 2 -i 47 -a 2 -x {2.0 1.1 -1 ------- null}
r -t 0.170976 -s 1 -d 0 -p ack -e 40 -c 1 -i 40 -a 1 -x {1.0 0.0 5 ------- null}
+ -t 0.170976 -s 0 -d 1 -p tcp -e 1040 -c 1 -i 48 -a 1 -x {0.0 1.0 14 ------- null}
r -t 0.170976 -s 1 -d 2 -p ack -e 40 -c 2 -i 41 -a 2 -x {1.1 2.0 5 ------- null}
+ -t 0.170976 -s 2 -d 1 -p tcp -e 1040 -c 2 -i 49 -a 2 -x {2.0 1.1 14 ------- null}
- -t 0.170976 -s 0 -d 1 -p tcp -e 1040 -c 1 -i 48 -a 1 -x {0.0 1.0 14 ------- null}
h -t 0.170976 -s 0 -d 1 -p tcp -e 1040 -c 1 -i 48 -a 1 -x {0.0 1.0 -1 ------- null}
- -t 0.170976 -s 2 -d 1 -p tcp -e 1040 -c 2 -i 49 -a 2 -x {2.0 1.1 14 ------- null}
h -t 0.170976 -s 2 -d 1 -p tcp -e 1040 -c 2 -i 49 -a 2 -x {2.0 1.1 -1 ------- null}
r -t 0.17264 -s 1 -d 0 -p ack -e 40 -c 1 -i 42 -a 1 -x {1.0 0.0 5 ------- null}
+ -t 0.17264 -s 0 -d 1 -p tcp -e 1040 -c 1 -i 50 -a 1 -x {0.0 1.0 6 ---A--- null}
r -t 0.17264 -s 1 -d 2 -p ack -e 40 -c 2 -i 43 -a 2 -x {1.1 2.0 5 ------- null}
+ -t 0.17264 -s 2 -d 1 -p tcp -e 1040 -c 2 -i 51 -a 2 -x {2.0 1.1 6 ---A--- null}
- -t 0.17264 -s 0 -d 1 -p tcp -e 1040 -c 1 -i 50 -a 1 -x {0.0 1.0 6 ---A--- null}
h -t 0.17264 -s 0 -d 1 -p tcp -e 1040 -c 1 -i 50 -a 1 -x {0.0 1.0 -1 ---A--- null}
- -t 0.17264 -s 2 -d 1 -p tcp -e 1040 -c 2 -i 51 -a 2 -x {2.0 1.1 6 ---A--- null}
h -t 0.17264 -s 2 -d 1 -p tcp -e 1040 -c 2 -i 51 -a 2 -x {2.0 1.1 -1 ---A--- null}
r -t 0.174304 -s 1 -d 0 -p ack -e 40 -c 1 -i 44 -a 1 -x {1.0 0.0 5 ------- null}
r -t 0.174304 -s 1 -d 2 -p ack -e 40 -c 2 -i 45 -a 2 -x {1.1 2.0 5 ------- null}
r -t 0.178976 -s 0 -d 1 -p tcp -e 1040 -c 1 -i 46 -a 1 -x {0.0 1.0 13 ------- null}
+ -t 0.178976 -s 1 -d 0 -p ack -e 40 -c 1 -i 52 -a 1 -x {1.0 0.0 5 ------- null}
- -t 0.178976 -s 1 -d 0 -p ack -e 40 -c 1 -i 52 -a 1 -x {1.0 0.0 5 ------- null}
h -t 0.178976 -s 1 -d 0 -p ack -e 40 -c 1 -i 52 -a 1 -x {1.0 0.0 -1 ------- null}
r -t 0.178976 -s 2 -d 1 -p tcp -e 1040 -c 2 -i 47 -a 2 -x {2.0 1.1 13 ------- null}
+ -t 0.178976 -s 1 -d 2 -p ack -e 40 -c 2 -i 53 -a 2 -x {1.1 2.0 5 ------- null}
- -t 0.178976 -s 1 -d 2 -p ack -e 40 -c 2 -i 53 -a 2 -x {1.1 2.0 5 ------- null}
h -t 0.178976 -s 1 -d 2 -p ack -e 40 -c 2 -i 53 -a 2 -x {1.1 2.0 -1 ------- null}
r -t 0.18064 -s 0 -d 1 -p tcp -e 1040 -c 1 -i 48 -a 1 -x {0.0 1.0 14 ------- null}
+ -t 0.18064 -s 1 -d 0 -p ack -e 40 -c 1 -i 54 -a 1 -x {1.0 0.0 5 ------- null}
- -t 0.18064 -s 1 -d 0 -p ack -e 40 -c 1 -i 54 -a 1 -x {1.0 0.0 5 ------- null}
h -t 0.18064 -s 1 -d 0 -p ack -e 40 -c 1 -i 54 -a 1 -x {1.0 0.0 -1 ------- null}
r -t 0.18064 -s 2 -d 1 -p tcp -e 1040 -c 2 -i 49 -a 2 -x {2.0 1.1 14 ------- null}
+ -t 0.18064 -s 1 -d 2 -p ack -e 40 -c 2 -i 55 -a 2 -x {1.1 2.0 5 ------- null}
- -t 0.18064 -s 1 -d 2 -p ack -e 40 -c 2 -i 55 -a 2 -x {1.1 2.0 5 ------- null}
h -t 0.18064 -s 1 -d 2 -p ack -e 40 -c 2 -i 55 -a 2 -x {1.1 2.0 -1 ------- null}
r -t 0.182304 -s 0 -d 1 -p tcp -e 1040 -c 1 -i 50 -a 1 -x {0.0 1.0 6 ---A--- null}
+ -t 0.182304 -s 1 -d 0 -p ack -e 40 -c 1 -i 56 -a 1 -x {1.0 0.0 9 ------- null}
- -t 0.182304 -s 1 -d 0 -p ack -e 40 -c 1 -i 56 -a 1 -x {1.0 0.0 9 ------- null}
h -t 0.182304 -s 1 -d 0 -p ack -e 40 -c 1 -i 56 -a 1 -x {1.0 0.0 -1 ------- null}
r -t 0.182304 -s 2 -d 1 -p tcp -e 1040 -c 2 -i 51 -a 2 -x {2.0 1.1 6 ---A--- null}
+ -t 0.182304 -s 1 -d 2 -p ack -e 40 -c 2 -i 57 -a 2 -x {1.1 2.0 9 ------- null}
- -t 0.182304 -s 1 -d 2 -p ack -e 40 -c 2 -i 57 -a 2 -x {1.1 2.0 9 ------- null}
h -t 0.182304 -s 1 -d 2 -p ack -e 40 -c 2 -i 57 -a 2 -x {1.1 2.0 -1 ------- null}
r -t 0.18704 -s 1 -d 0 -p ack -e 40 -c 1 -i 52 -a 1 -x {1.0 0.0 5 ------- null}
r -t 0.18704 -s 1 -d 2 -p ack -e 40 -c 2 -i 53 -a 2 -x {1.1 2.0 5 ------- null}
r -t 0.188704 -s 1 -d 0 -p ack -e 40 -c 1 -i 54 -a 1 -x {1.0 0.0 5 ------- null}
r -t 0.188704 -s 1 -d 2 -p ack -e 40 -c 2 -i 55 -a 2 -x {1.1 2.0 5 ------- null}
r -t 0.190368 -s 1 -d 0 -p ack -e 40 -c 1 -i 56 -a 1 -x {1.0 0.0 9 ------- null}
+ -t 0.190368 -s 0 -d 1 -p tcp -e 1040 -c 1 -i 58 -a 1 -x {0.0 1.0 10 ------- null}
- -t 0.190368 -s 0 -d 1 -p tcp -e 1040 -c 1 -i 58 -a 1 -x {0.0 1.0 10 ------- null}
h -t 0.190368 -s 0 -d 1 -p tcp -e 1040 -c 1 -i 58 -a 1 -x {0.0 1.0 -1 ------- null}
+ -t 0.190368 -s 0 -d 1 -p tcp -e 1040 -c 1 -i 59 -a 1 -x {0.0 1.0 11 ------- null}
r -t 0.190368 -s 1 -d 2 -p ack -e 40 -c 2 -i 57 -a 2 -x {1.1 2.0 9 ------- null}
+ -t 0.190368 -s 2 -d 1 -p tcp -e 1040 -c 2 -i 60 -a 2 -x {2.0 1.1 10 ------- null}
- -t 0.190368 -s 2 -d 1 -p tcp -e 1040 -c 2 -i 60 -a 2 -x {2.0 1.1 10 ------- null}
h -t 0.190368 -s 2 -d 1 -p tcp -e 1040 -c 2 -i 60 -a 2 -x {2.0 1.1 -1 ------- null}
+ -t 0.190368 -s 2 -d 1 -p tcp -e 1040 -c 2 -i 61 -a 2 -x {2.0 1.1 11 ------- null}
- -t 0.192032 -s 0 -d 1 -p tcp -e 1040 -c 1 -i 59 -a 1 -x {0.0 1.0 11 ------- null}
h -t 0.192032 -s 0 -d 1 -p tcp -e 1040 -c 1 -i 59 -a 1 -x {0.0 1.0 -1 ------- null}
- -t 0.192032 -s 2 -d 1 -p tcp -e 1040 -c 2 -i 61 -a 2 -x {2.0 1.1 11 ------- null}
h -t 0.192032 -s 2 -d 1 -p tcp -e 1040 -c 2 -i 61 -a 2 -x {2.0 1.1 -1 ------- null}
r -t 0.200032 -s 0 -d 1 -p tcp -e 1040 -c 1 -i 58 -a 1 -x {0.0 1.0 10 ------- null}
+ -t 0.200032 -s 1 -d 0 -p ack -e 40 -c 1 -i 62 -a 1 -x {1.0 0.0 11 ------- null}
- -t 0.200032 -s 1 -d 0 -p ack -e 40 -c 1 -i 62 -a 1 -x {1.0 0.0 11 ------- null}
h -t 0.200032 -s 1 -d 0 -p ack -e 40 -c 1 -i 62 -a 1 -x {1.0 0.0 -1 ------- null}
r -t 0.200032 -s 2 -d 1 -p tcp -e 1040 -c 2 -i 60 -a 2 -x {2.0 1.1 10 ------- null}
+ -t 0.200032 -s 1 -d 2 -p ack -e 40 -c 2 -i 63 -a 2 -x {1.1 2.0 11 ------- null}
- -t 0.200032 -s 1 -d 2 -p ack -e 40 -c 2 -i 63 -a 2 -x {1.1 2.0 11 ------- null}
h -t 0.200032 -s 1 -d 2 -p ack -e 40 -c 2 -i 63 -a 2 -x {1.1 2.0 -1 ------- null}
r -t 0.201696 -s 0 -d 1 -p tcp -e 1040 -c 1 -i 59 -a 1 -x {0.0 1.0 11 ------- null}
+ -t 0.201696 -s 1 -d 0 -p ack -e 40 -c 1 -i 64 -a 1 -x {1.0 0.0 11 ------- null}
- -t 0.201696 -s 1 -d 0 -p ack -e 40 -c 1 -i 64 -a 1 -x {1.0 0.0 11 ------- null}
h -t 0.201696 -s 1 -d 0 -p ack -e 40 -c 1 -i 64 -a 1 -x {1.0 0.0 -1 ------- null}
r -t 0.201696 -s 2 -d 1 -p tcp -e 1040 -c 2 -i 61 -a 2 -x {2.0 1.1 11 ------- null}
+ -t 0.201696 -s 1 -d 2 -p ack -e 40 -c 2 -i 65 -a 2 -x {1.1 2.0 11 ------- null}
- -t 0.201696 -s 1 -d 2 -p ack -e 40 -c 2 -i 65 -a 2 -x {1.1 2.0 11 ------- null}
h -t 0.201696 -s 1 -d 2 -p ack -e 40 -c 2 -i 65 -a 2 -x {1.1 2.0 -1 ------- null}
r -t 0.208096 -s 1 -d 0 -p ack -e 40 -c 1 -i 62 -a 1 -x {1.0 0.0 11 ------- null}
+ -t 0.208096 -s 0 -d 1 -p tcp -e 1040 -c 1 -i 66 -a 1 -x {0.0 1.0 12 ------- null}
- -t 0.208096 -s 0 -d 1 -p tcp -e 1040 -c 1 -i 66 -a 1 -x {0.0 1.0 12 ------- null}
h -t 0.208096 -s 0 -d 1 -p tcp -e 1040 -c 1 -i 66 -a 1 -x {0.0 1.0 -1 ------- null}
+ -t 0.208096 -s 0 -d 1 -p tcp -e 1040 -c 1 -i 67 -a 1 -x {0.0 1.0 13 ------- null}
+ -t 0.208096 -s 0 -d 1 -p tcp -e 1040 -c 1 -i 68 -a 1 -x {0.0 1.0 14 ------- null}
r -t 0.208096 -s 1 -d 2 -p ack -e 40 -c 2 -i 63 -a 2 -x {1.1 2.0 11 ------- null}
+ -t 0.208096 -s 2 -d 1 -p tcp -e 1040 -c 2 -i 69 -a 2 -x {2.0 1.1 12 ------- null}
- -t 0.208096 -s 2 -d 1 -p tcp -e 1040 -c 2 -i 69 -a 2 -x {2.0 1.1 12 ------- null}
h -t 0.208096 -s 2 -d 1 -p tcp -e 1040 -c 2 -i 69 -a 2 -x {2.0 1.1 -1 ------- null}
+ -t 0.208096 -s 2 -d 1 -p tcp -e 1040 -c 2 -i 70 -a 2 -x {2.0 1.1 13 ------- null}
+ -t 0.208096 -s 2 -d 1 -p tcp -e 1040 -c 2 -i 71 -a 2 -x {2.0 1.1 14 ------- null}
r -t 0.20976 -s 1 -d 0 -p ack -e 40 -c 1 -i 64 -a 1 -x {1.0 0.0 11 ------- null}
+ -t 0.20976 -s 0 -d 1 -p tcp -e 1040 -c 1 -i 72 -a 1 -x {0.0 1.0 15 ------- null}
d -t 0.20976 -s 0 -d 1 -p tcp -e 1040 -c 1 -i 72 -a 1 -x {0.0 1.0 15 ------- null}
r -t 0.20976 -s 1 -d 2 -p ack -e 40 -c 2 -i 65 -a 2 -x {1.1 2.0 11 ------- null}
+ -t 0.20976 -s 2 -d 1 -p tcp -e 1040 -c 2 -i 73 -a 2 -x {2.0 1.1 15 ------- null}
d -t 0.20976 -s 2 -d 1 -p tcp -e 1040 -c 2 -i 73 -a 2 -x {2.0 1.1 15 ------- null}
- -t 0.20976 -s 0 -d 1 -p tcp -e 1040 -c 1 -i 67 -a 1 -x {0.0 1.0 13 ------- null}
h -t 0.20976 -s 0 -d 1 -p tcp -e 1040 -c 1 -i 67 -a 1 -x {0.0 1.0 -1 ------- null}
- -t 0.20976 -s 2 -d 1 -p tcp -e 1040 -c 2 -i 70 -a 2 -x {2.0 1.1 13 ------- null}
h -t 0.20976 -s 2 -d 1 -p tcp -e 1040 -c 2 -i 70 -a 2 -x {2.0 1.1 -1 ------- null}
- -t 0.211424 -s 0 -d 1 -p tcp -e 1040 -c 1 -i 68 -a 1 -x {0.0 1.0 14 ------- null}
h -t 0.211424 -s 0 -d 1 -p tcp -e 1040 -c 1 -i 68 -a 1 -x {0.0 1.0 -1 ------- null}
- -t 0.211424 -s 2 -d 1 -p tcp -e 1040 -c 2 -i 71 -a 2 -x {2.0 1.1 14 ------- null}
h -t 0.211424 -s 2 -d 1 -p tcp -e 1040 -c 2 -i 71 -a 2 -x {2.0 1.1 -1 ------- null}
r -t 0.21776 -s 0 -d 1 -p tcp -e 1040 -c 1 -i 66 -a 1 -x {0.0 1.0 12 ------- null}
+ -t 0.21776 -s 1 -d 0 -p ack -e 40 -c 1 -i 74 -a 1 -x {1.0 0.0 14 ------- null}
- -t 0.21776 -s 1 -d 0 -p ack -e 40 -c 1 -i 74 -a 1 -x {1.0 0.0 14 ------- null}
h -t 0.21776 -s 1 -d 0 -p ack -e 40 -c 1 -i 74 -a 1 -x {1.0 0.0 -1 ------- null}
r -t 0.21776 -s 2 -d 1 -p tcp -e 1040 -c 2 -i 69 -a 2 -x {2.0 1.1 12 ------- null}
+ -t 0.21776 -s 1 -d 2 -p ack -e 40 -c 2 -i 75 -a 2 -x {1.1 2.0 14 ------- null}
- -t 0.21776 -s 1 -d 2 -p ack -e 40 -c 2 -i 75 -a 2 -x {1.1 2.0 14 ------- null}
h -t 0.21776 -s 1 -d 2 -p ack -e 40 -c 2 -i 75 -a 2 -x {1.1 2.0 -1 ------- null}
r -t 0.219424 -s 0 -d 1 -p tcp -e 1040 -c 1 -i 67 -a 1 -x {0.0 1.0 13 ------- null}
+ -t 0.219424 -s 1 -d 0 -p ack -e 40 -c 1 -i 76 -a 1 -x {1.0 0.0 14 ------- null}
- -t 0.219424 -s 1 -d 0 -p ack -e 40 -c 1 -i 76 -a 1 -x {1.0 0.0 14 ------- null}
h -t 0.219424 -s 1 -d 0 -p ack -e 40 -c 1 -i 76 -a 1 -x {1.0 0.0 -1 ------- null}
r -t 0.219424 -s 2 -d 1 -p tcp -e 1040 -c 2 -i 70 -a 2 -x {2.0 1.1 13 ------- null}
+ -t 0.219424 -s 1 -d 2 -p ack -e 40 -c 2 -i 77 -a 2 -x {1.1 2.0 14 ------- null}
- -t 0.219424 -s 1 -d 2 -p ack -e 40 -c 2 -i 77 -a 2 -x {1.1 2.0 14 ------- null}
h -t 0.219424 -s 1 -d 2 -p ack -e 40 -c 2 -i 77 -a 2 -x {1.1 2.0 -1 ------- null}
r -t 0.221088 -s 0 -d 1 -p tcp -e 1040 -c 1 -i 68 -a 1 -x {0.0 1.0 14 ------- null}
+ -t 0.221088 -s 1 -d 0 -p ack -e 40 -c 1 -i 78 -a 1 -x {1.0 0.0 14 ------- null}
- -t 0.221088 -s 1 -d 0 -p ack -e 40 -c 1 -i 78 -a 1 -x {1.0 0.0 14 ------- null}
h -t 0.221088 -s 1 -d 0 -p ack -e 40 -c 1 -i 78 -a 1 -x {1.0 0.0 -1 ------- null}
r -t 0.221088 -s 2 -d 1 -p tcp -e 1040 -c 2 -i 71 -a 2 -x {2.0 1.1 14 ------- null}
+ -t 0.221088 -s 1 -d 2 -p ack -e 40 -c 2 -i 79 -a 2 -x {1.1 2.0 14 ------- null}
- -t 0.221088 -s 1 -d 2 -p ack -e 40 -c 2 -i 79 -a 2 -x {1.1 2.0 14 ------- null}
h -t 0.221088 -s 1 -d 2 -p ack -e 40 -c 2 -i 79 -a 2 -x {1.1 2.0 -1 ------- null}
r -t 0.225824 -s 1 -d 0 -p ack -e 40 -c 1 -i 74 -a 1 -x {1.0 0.0 14 ------- null}
+ -t 0.225824 -s 0 -d 1 -p tcp -e 1040 -c 1 -i 80 -a 1 -x {0.0 1.0 16 ------- null}
- -t 0.225824 -s 0 -d 1 -p tcp -e 1040 -c 1 -i 80 -a 1 -x {0.0 1.0 16 ------- null}
h -t 0.225824 -s 0 -d 1 -p tcp -e 1040 -c 1 -i 80 -a 1 -x {0.0 1.0 -1 ------- null}
+ -t 0.225824 -s 0 -d 1 -p tcp -e 1040 -c 1 -i 81 -a 1 -x {0.0 1.0 17 ------- null}
r -t 0.225824 -s 1 -d 2 -p ack -e 40 -c 2 -i 75 -a 2 -x {1.1 2.0 14 ------- null}
+ -t 0.225824 -s 2 -d 1 -p tcp -e 1040 -c 2 -i 82 -a 2 -x {2.0 1.1 16 ------- null}
- -t 0.225824 -s 2 -d 1 -p tcp -e 1040 -c 2 -i 82 -a 2 -x {2.0 1.1 16 ------- null}
h -t 0.225824 -s 2 -d 1 -p tcp -e 1040 -c 2 -i 82 -a 2 -x {2.0 1.1 -1 ------- null}
+ -t 0.225824 -s 2 -d 1 -p tcp -e 1040 -c 2 -i 83 -a 2 -x {2.0 1.1 17 ------- null}
r -t 0.227488 -s 1 -d 0 -p ack -e 40 -c 1 -i 76 -a 1 -x {1.0 0.0 14 ------- null}
+ -t 0.227488 -s 0 -d 1 -p tcp -e 1040 -c 1 -i 84 -a 1 -x {0.0 1.0 18 ------- null}
r -t 0.227488 -s 1 -d 2 -p ack -e 40 -c 2 -i 77 -a 2 -x {1.1 2.0 14 ------- null}
+ -t 0.227488 -s 2 -d 1 -p tcp -e 1040 -c 2 -i 85 -a 2 -x {2.0 1.1 18 ------- null}
- -t 0.227488 -s 0 -d 1 -p tcp -e 1040 -c 1 -i 81 -a 1 -x {0.0 1.0 17 ------- null}
h -t 0.227488 -s 0 -d 1 -p tcp -e 1040 -c 1 -i 81 -a 1 -x {0.0 1.0 -1 ------- null}
- -t 0.227488 -s 2 -d 1 -p tcp -e 1040 -c 2 -i 83 -a 2 -x {2.0 1.1 17 ------- null}
h -t 0.227488 -s 2 -d 1 -p tcp -e 1040 -c 2 -i 83 -a 2 -x {2.0 1.1 -1 ------- null}
r -t 0.229152 -s 1 -d 0 -p ack -e 40 -c 1 -i 78 -a 1 -x {1.0 0.0 14 ------- null}
+ -t 0.229152 -s 0 -d 1 -p tcp -e 1040 -c 1 -i 86 -a 1 -x {0.0 1.0 19 ------- null}
r -t 0.229152 -s 1 -d 2 -p ack -e 40 -c 2 -i 79 -a 2 -x {1.1 2.0 14 ------- null}
+ -t 0.229152 -s 2 -d 1 -p tcp -e 1040 -c 2 -i 87 -a 2 -x {2.0 1.1 19 ------- null}
- -t 0.229152 -s 0 -d 1 -p tcp -e 1040 -c 1 -i 84 -a 1 -x {0.0 1.0 18 ------- null}
h -t 0.229152 -s 0 -d 1 -p tcp -e 1040 -c 1 -i 84 -a 1 -x {0.0 1.0 -1 ------- null}
- -t 0.229152 -s 2 -d 1 -p tcp -e 1040 -c 2 -i 85 -a 2 -x {2.0 1.1 18 ------- null}
h -t 0.229152 -s 2 -d 1 -p tcp -e 1040 -c 2 -i 85 -a 2 -x {2.0 1.1 -1 ------- null}
- -t 0.230816 -s 0 -d 1 -p tcp -e 1040 -c 1 -i 86 -a 1 -x {0.0 1.0 19 ------- null}
h -t 0.230816 -s 0 -d 1 -p tcp -e 1040 -c 1 -i 86 -a 1 -x {0.0 1.0 -1 ------- null}
- -t 0.230816 -s 2 -d 1 -p tcp -e 1040 -c 2 -i 87 -a 2 -x {2.0 1.1 19 ------- null}
h -t 0.230816 -s 2 -d 1 -p tcp -e 1040 -c 2 -i 87 -a 2 -x {2.0 1.1 -1 ------- null}
r -t 0.235488 -s 0 -d 1 -p tcp -e 1040 -c 1 -i 80 -a 1 -x {0.0 1.0 16 ------- null}
+ -t 0.235488 -s 1 -d 0 -p ack -e 40 -c 1 -i 88 -a 1 -x {1.0 0.0 14 ------- null}
- -t 0.235488 -s 1 -d 0 -p ack -e 40 -c 1 -i 88 -a 1 -x {1.0 0.0 14 ------- null}
h -t 0.235488 -s 1 -d 0 -p ack -e 40 -c 1 -i 88 -a 1 -x {1.0 0.0 -1 ------- null}
r -t 0.235488 -s 2 -d 1 -p tcp -e 1040 -c 2 -i 82 -a 2 -x {2.0 1.1 16 ------- null}
+ -t 0.235488 -s 1 -d 2 -p ack -e 40 -c 2 -i 89 -a 2 -x {1.1 2.0 14 ------- null}
- -t 0.235488 -s 1 -d 2 -p ack -e 40 -c 2 -i 89 -a 2 -x {1.1 2.0 14 ------- null}
h -t 0.235488 -s 1 -d 2 -p ack -e 40 -c 2 -i 89 -a 2 -x {1.1 2.0 -1 ------- null}
r -t 0.237152 -s 0 -d 1 -p tcp -e 1040 -c 1 -i 81 -a 1 -x {0.0 1.0 17 ------- null}
+ -t 0.237152 -s 1 -d 0 -p ack -e 40 -c 1 -i 90 -a 1 -x {1.0 0.0 14 ------- null}
- -t 0.237152 -s 1 -d 0 -p ack -e 40 -c 1 -i 90 -a 1 -x {1.0 0.0 14 ------- null}
h -t 0.237152 -s 1 -d 0 -p ack -e 40 -c 1 -i 90 -a 1 -x {1.0 0.0 -1 ------- null}
r -t 0.237152 -s 2 -d 1 -p tcp -e 1040 -c 2 -i 83 -a 2 -x {2.0 1.1 17 ------- null}
+ -t 0.237152 -s 1 -d 2 -p ack -e 40 -c 2 -i 91 -a 2 -x {1.1 2.0 14 ------- null}
- -t 0.237152 -s 1 -d 2 -p ack -e 40 -c 2 -i 91 -a 2 -x {1.1 2.0 14 ------- null}
h -t 0.237152 -s 1 -d 2 -p ack -e 40 -c 2 -i 91 -a 2 -x {1.1 2.0 -1 ------- null}
r -t 0.238816 -s 0 -d 1 -p tcp -e 1040 -c 1 -i 84 -a 1 -x {0.0 1.0 18 ------- null}
+ -t 0.238816 -s 1 -d 0 -p ack -e 40 -c 1 -i 92 -a 1 -x {1.0 0.0 14 ------- null}
- -t 0.238816 -s 1 -d 0 -p ack -e 40 -c 1 -i 92 -a 1 -x {1.0 0.0 14 ------- null}
h -t 0.238816 -s 1 -d 0 -p ack -e 40 -c 1 -i 92 -a 1 -x {1.0 0.0 -1 ------- null}
r -t 0.238816 -s 2 -d 1 -p tcp -e 1040 -c 2 -i 85 -a 2 -x {2.0 1.1 18 ------- null}
+ -t 0.238816 -s 1 -d 2 -p ack -e 40 -c 2 -i 93 -a 2 -x {1.1 2.0 14 ------- null}
- -t 0.238816 -s 1 -d 2 -p ack -e 40 -c 2 -i 93 -a 2 -x {1.1 2.0 14 ------- null}
h -t 0.238816 -s 1 -d 2 -p ack -e 40 -c 2 -i 93 -a 2 -x {1.1 2.0 -1 ------- null}
r -t 0.24048 -s 0 -d 1 -p tcp -e 1040 -c 1 -i 86 -a 1 -x {0.0 1.0 19 ------- null}
+ -t 0.24048 -s 1 -d 0 -p ack -e 40 -c 1 -i 94 -a 1 -x {1.0 0.0 14 ------- null}
- -t 0.24048 -s 1 -d 0 -p ack -e 40 -c 1 -i 94 -a 1 -x {1.0 0.0 14 ------- null}
h -t 0.24048 -s 1 -d 0 -p ack -e 40 -c 1 -i 94 -a 1 -x {1.0 0.0 -1 ------- null}
r -t 0.24048 -s 2 -d 1 -p tcp -e 1040 -c 2 -i 87 -a 2 -x {2.0 1.1 19 ------- null}
+ -t 0.24048 -s 1 -d 2 -p ack -e 40 -c 2 -i 95 -a 2 -x {1.1 2.0 14 ------- null}
- -t 0.24048 -s 1 -d 2 -p ack -e 40 -c 2 -i 95 -a 2 -x {1.1 2.0 14 ------- null}