+ 0.1 0 1 tcp 40 ------- 1 0.0 1.0 0 0
- 0.1 0 1 tcp 40 ------- 1 0.0 1.0 0 0
+ 0.1 2 1 tcp 40 ------- 2 2.0 1.1 0 1
- 0.1 2 1 tcp 40 ------- 2 2.0 1.1 0 1
r 0.108064 0 1 tcp 40 ------- 1 0.0 1.0 0 0
+ 0.108064 1 0 ack 40 ------- 1 1.0 0.0 0 2
- 0.108064 1 0 ack 40 ------- 1 1.0 0.0 0 2
r 0.108064 2 1 tcp 40 ------- 2 2.0 1.1 0 1
+ 0.108064 1 2 ack 40 ------- 2 1.1 2.0 0 3
- 0.108064 1 2 ack 40 ------- 2 1.1 2.0 0 3
r 0.116128 1 0 ack 40 ------- 1 1.0 0.0 0 2
+ 0.116128 0 1 tcp 1040 ------- 1 0.0 1.0 1 4
- 0.116128 0 1 tcp 1040 ------- 1 0.0 1.0 1 4
+ 0.116128 0 1 tcp 1040 ------- 1 0.0 1.0 2 5
r 0.116128 1 2 ack 40 ------- 2 1.1 2.0 0 3
+ 0.116128 2 1 tcp 1040 ------- 2 2.0 1.1 1 6
- 0.116128 2 1 tcp 1040 ------- 2 2.0 1.1 1 6
+ 0.116128 2 1 tcp 1040 ------- 2 2.0 1.1 2 7
- 0.117792 0 1 tcp 1040 ------- 1 0.0 1.0 2 5
- 0.117792 2 1 tcp 1040 ------- 2 2.0 1.1 2 7
r 0.125792 0 1 tcp 1040 ------- 1 0.0 1.0 1 4
+ 0.125792 1 0 ack 40 ------- 1 1.0 0.0 1 8
- 0.125792 1 0 ack 40 ------- 1 1.0 0.0 1 8
r 0.125792 2 1 tcp 1040 ------- 2 2.0 1.1 1 6
+ 0.125792 1 2 ack 40 ------- 2 1.1 2.0 1 9
- 0.125792 1 2 ack 40 ------- 2 1.1 2.0 1 9
r 0.127456 0 1 tcp 1040 ------- 1 0.0 1.0 2 5
+ 0.127456 1 0 ack 40 ------- 1 1.0 0.0 2 10
- 0.127456 1 0 ack 40 ------- 1 1.0 0.0 2 10
r 0.127456 2 1 tcp 1040 ------- 2 2.0 1.1 2 7
+ 0.127456 1 2 ack 40 ------- 2 1.1 2.0 2 11
- 0.127456 1 2 ack 40 ------- 2 1.1 2.0 2 11
r 0.133856 1 0 ack 40 ------- 1 1.0 0.0 1 8
+ 0.133856 0 1 tcp 1040 ------- 1 0.0 1.0 3 12
- 0.133856 0 1 tcp 1040 ------- 1 0.0 1.0 3 12
+ 0.133856 0 1 tcp 1040 ------- 1 0.0 1.0 4 13
r 0.133856 1 2 ack 40 ------- 2 1.1 2.0 1 9
+ 0.133856 2 1 tcp 1040 ------- 2 2.0 1.1 3 14
- 0.133856 2 1 tcp 1040 ------- 2 2.0 1.1 3 14
+ 0.133856 2 1 tcp 1040 ------- 2 2.0 1.1 4 15
r 0.13552 1 0 ack 40 ------- 1 1.0 0.0 2 10
+ 0.13552 0 1 tcp 1040 ------- 1 0.0 1.0 5 16
+ 0.13552 0 1 tcp 1040 ------- 1 0.0 1.0 6 17
d 0.13552 0 1 tcp 1040 ------- 1 0.0 1.0 6 17
r 0.13552 1 2 ack 40 ------- 2 1.1 2.0 2 11
+ 0.13552 2 1 tcp 1040 ------- 2 2.0 1.1 5 18
+ 0.13552 2 1 tcp 1040 ------- 2 2.0 1.1 6 19
d 0.13552 2 1 tcp 1040 ------- 2 2.0 1.1 6 19
- 0.13552 0 1 tcp 1040 ------- 1 0.0 1.0 4 13
- 0.13552 2 1 tcp 1040 ------- 2 2.0 1.1 4 15
- 0.137184 0 1 tcp 1040 ------- 1 0.0 1.0 5 16
- 0.137184 2 1 tcp 1040 ------- 2 2.0 1.1 5 18
r 0.14352 0 1 tcp 1040 ------- 1 0.0 1.0 3 12
+ 0.14352 1 0 ack 40 ------- 1 1.0 0.0 3 20
- 0.14352 1 0 ack 40 ------- 1 1.0 0.0 3 20
r 0.14352 2 1 tcp 1040 ------- 2 2.0 1.1 3 14
+ 0.14352 1 2 ack 40 ------- 2 1.1 2.0 3 21
- 0.14352 1 2 ack 40 ------- 2 1.1 2.0 3 21
r 0.145184 0 1 tcp 1040 ------- 1 0.0 1.0 4 13
+ 0.145184 1 0 ack 40 ------- 1 1.0 0.0 4 22
- 0.145184 1 0 ack 40 ------- 1 1.0 0.0 4 22
r 0.145184 2 1 tcp 1040 ------- 2 2.0 1.1 4 15
+ 0.145184 1 2 ack 40 ------- 2 1.1 2.0 4 23
- 0.145184 1 2 ack 40 ------- 2 1.1 2.0 4 23
r 0.146848 0 1 tcp 1040 ------- 1 0.0 1.0 5 16
+ 0.146848 1 0 ack 40 ------- 1 1.0 0.0 5 24
- 0.146848 1 0 ack 40 ------- 1 1.0 0.0 5 24
r 0.146848 2 1 tcp 1040 ------- 2 2.0 1.1 5 18
+ 0.146848 1 2 ack 40 ------- 2 1.1 2.0 5 25
- 0.146848 1 2 ack 40 ------- 2 1.1 2.0 5 25
r 0.151584 1 0 ack 40 ------- 1 1.0 0.0 3 20
+ 0.151584 0 1 tcp 1040 ------- 1 0.0 1.0 7 26
- 0.151584 0 1 tcp 1040 ------- 1 0.0 1.0 7 26
+ 0.151584 0 1 tcp 1040 ------- 1 0.0 1.0 8 27
r 0.151584 1 2 ack 40 ------- 2 1.1 2.0 3 21
+ 0.151584 2 1 tcp 1040 ------- 2 2.0 1.1 7 28
- 0.151584 2 1 tcp 1040 ------- 2 2.0 1.1 7 28
+ 0.151584 2 1 tcp 1040 ------- 2 2.0 1.1 8 29
r 0.153248 1 0 ack 40 ------- 1 1.0 0.0 4 22
+ 0.153248 0 1 tcp 1040 ------- 1 0.0 1.0 9 30
+ 0.153248 0 1 tcp 1040 ------- 1 0.0 1.0 10 31
d 0.153248 0 1 tcp 1040 ------- 1 0.0 1.0 10 31
r 0.153248 1 2 ack 40 ------- 2 1.1 2.0 4 23
+ 0.153248 2 1 tcp 1040 ------- 2 2.0 1.1 9 32
+ 0.153248 2 1 tcp 1040 ------- 2 2.0 1.1 10 33
d 0.153248 2 1 tcp 1040 ------- 2 2.0 1.1 10 33
- 0.153248 0 1 tcp 1040 ------- 1 0.0 1.0 8 27
- 0.153248 2 1 tcp 1040 ------- 2 2.0 1.1 8 29
r 0.154912 1 0 ack 40 ------- 1 1.0 0.0 5 24
+ 0.154912 0 1 tcp 1040 ------- 1 0.0 1.0 11 34
+ 0.154912 0 1 tcp 1040 ------- 1 0.0 1.0 12 35
d 0.154912 0 1 tcp 1040 ------- 1 0.0 1.0 12 35
r 0.154912 1 2 ack 40 ------- 2 1.1 2.0 5 25
+ 0.154912 2 1 tcp 1040 ------- 2 2.0 1.1 11 36
+ 0.154912 2 1 tcp 1040 ------- 2 2.0 1.1 12 37
d 0.154912 2 1 tcp 1040 ------- 2 2.0 1.1 12 37
- 0.154912 0 1 tcp 1040 ------- 1 0.0 1.0 9 30
- 0.154912 2 1 tcp 1040 ------- 2 2.0 1.1 9 32
- 0.156576 0 1 tcp 1040 ------- 1 0.0 1.0 11 34
- 0.156576 2 1 tcp 1040 ------- 2 2.0 1.1 11 36
r 0.161248 0 1 tcp 1040 ------- 1 0.0 1.0 7 26
+ 0.161248 1 0 ack 40 ------- 1 1.0 0.0 5 38
- 0.161248 1 0 ack 40 ------- 1 1.0 0.0 5 38
r 0.161248 2 1 tcp 1040 ------- 2 2.0 1.1 7 28
+ 0.161248 1 2 ack 40 ------- 2 1.1 2.0 5 39
- 0.161248 1 2 ack 40 ------- 2 1.1 2.0 5 39
r 0.162912 0 1 tcp 1040 ------- 1 0.0 1.0 8 27
+ 0.162912 1 0 ack 40 ------- 1 1.0 0.0 5 40
- 0.162912 1 0 ack 40 ------- 1 1.0 0.0 5 40
r 0.162912 2 1 tcp 1040 ------- 2 2.0 1.1 8 29
+ 0.162912 1 2 ack 40 ------- 2 1.1 2.0 5 41
- 0.162912 1 2 ack 40 ------- 2 1.1 2.0 5 41
r 0.164576 0 1 tcp 1040 ------- 1 0.0 1.0 9 30
+ 0.164576 1 0 ack 40 ------- 1 1.0 0.0 5 42
- 0.164576 1 0 ack 40 ------- 1 1.0 0.0 5 42
r 0.164576 2 1 tcp 1040 ------- 2 2.0 1.1 9 32
+ 0.164576 1 2 ack 40 ------- 2 1.1 2.0 5 43
- 0.164576 1 2 ack 40 ------- 2 1.1 2.0 5 43
r 0.16624 0 1 tcp 1040 ------- 1 0.0 1.0 11 34
+ 0.16624 1 0 ack 40 ------- 1 1.0 0.0 5 44
- 0.16624 1 0 ack 40 ------- 1 1.0 0.0 5 44
r 0.16624 2 1 tcp 1040 ------- 2 2.0 1.1 11 36
+ 0.16624 1 2 ack 40 ------- 2 1.1 2.0 5 45
- 0.16624 1 2 ack 40 ------- 2 1.1 2.0 5 45
r 0.169312 1 0 ack 40 ------- 1 1.0 0.0 5 38
+ 0.169312 0 1 tcp 1040 ------- 1 0.0 1.0 13 46
- 0.169312 0 1 tcp 1040 ------- 1 0.0 1.0 13 46
r 0.169312 1 2 ack 40 ------- 2 1.1 2.0 5 39
+ 0.169312 2 1 tcp 1040 ------- 2 2.0 1.1 13 47
- 0.169312 2 1 tcp 1040 ------- 2 2.0 1.1 13 47
r 0.170976 1 0 ack 40 ------- 1 1.0 0.0 5 40
+ 0.170976 0 1 tcp 1040 ------- 1 0.0 1.0 14 48
r 0.170976 1 2 ack 40 ------- 2 1.1 2.0 5 41
+ 0.170976 2 1 tcp 1040 ------- 2 2.0 1.1 14 49
- 0.170976 0 1 tcp 1040 ------- 1 0.0 1.0 14 48
- 0.170976 2 1 tcp 1040 ------- 2 2.0 1.1 14 49
r 0.17264 1 0 ack 40 ------- 1 1.0 0.0 5 42
+ 0.17264 0 1 tcp 1040 ---A--- 1 0.0 1.0 6 50
r 0.17264 1 2 ack 40 ------- 2 1.1 2.0 5 43
+ 0.17264 2 1 tcp 1040 ---A--- 2 2.0 1.1 6 51
- 0.17264 0 1 tcp 1040 ---A--- 1 0.0 1.0 6 50
- 0.17264 2 1 tcp 1040 ---A--- 2 2.0 1.1 6 51
r 0.174304 1 0 ack 40 ------- 1 1.0 0.0 5 44
r 0.174304 1 2 ack 40 ------- 2 1.1 2.0 5 45
r 0.178976 0 1 tcp 1040 ------- 1 0.0 1.0 13 46
+ 0.178976 1 0 ack 40 ------- 1 1.0 0.0 5 52
- 0.178976 1 0 ack 40 ------- 1 1.0 0.0 5 52
r 0.178976 2 1 tcp 1040 ------- 2 2.0 1.1 13 47
+ 0.178976 1 2 ack 40 ------- 2 1.1 2.0 5 53
- 0.178976 1 2 ack 40 ------- 2 1.1 2.0 5 53
r 0.18064 0 1 tcp 1040 ------- 1 0.0 1.0 14 48
+ 0.18064 1 0 ack 40 ------- 1 1.0 0.0 5 54
- 0.18064 1 0 ack 40 ------- 1 1.0 0.0 5 54
r 0.18064 2 1 tcp 1040 ------- 2 2.0 1.1 14 49
+ 0.18064 1 2 ack 40 ------- 2 1.1 2.0 5 55
- 0.18064 1 2 ack 40 ------- 2 1.1 2.0 5 55
r 0.182304 0 1 tcp 1040 ---A--- 1 0.0 1.0 6 50
+ 0.182304 1 0 ack 40 ------- 1 1.0 0.0 9 56
- 0.182304 1 0 ack 40 ------- 1 1.0 0.0 9 56
r 0.182304 2 1 tcp 1040 ---A--- 2 2.0 1.1 6 51
+ 0.182304 1 2 ack 40 ------- 2 1.1 2.0 9 57
- 0.182304 1 2 ack 40 ------- 2 1.1 2.0 9 57
r 0.18704 1 0 ack 40 ------- 1 1.0 0.0 5 52
r 0.18704 1 2 ack 40 ------- 2 1.1 2.0 5 53
r 0.188704 1 0 ack 40 ------- 1 1.0 0.0 5 54
r 0.188704 1 2 ack 40 ------- 2 1.1 2.0 5 55
r 0.190368 1 0 ack 40 ------- 1 1.0 0.0 9 56
+ 0.190368 0 1 tcp 1040 ------- 1 0.0 1.0 10 58
- 0.190368 0 1 tcp 1040 ------- 1 0.0 1.0 10 58
+ 0.190368 0 1 tcp 1040 ------- 1 0.0 1.0 11 59
r 0.190368 1 2 ack 40 ------- 2 1.1 2.0 9 57
+ 0.190368 2 1 tcp 1040 ------- 2 2.0 1.1 10 60
- 0.190368 2 1 tcp 1040 ------- 2 2.0 1.1 10 60
+ 0.190368 2 1 tcp 1040 ------- 2 2.0 1.1 11 61
- 0.192032 0 1 tcp 1040 ------- 1 0.0 1.0 11 59
- 0.192032 2 1 tcp 1040 ------- 2 2.0 1.1 11 61
r 0.200032 0 1 tcp 1040 ------- 1 0.0 1.0 10 58
+ 0.200032 1 0 ack 40 ------- 1 1.0 0.0 11 62
- 0.200032 1 0 ack 40 ------- 1 1.0 0.0 11 62
r 0.200032 2 1 tcp 1040 ------- 2 2.0 1.1 10 60
+ 0.200032 1 2 ack 40 ------- 2 1.1 2.0 11 63
- 0.200032 1 2 ack 40 ------- 2 1.1 2.0 11 63
r 0.201696 0 1 tcp 1040 ------- 1 0.0 1.0 11 59
+ 0.201696 1 0 ack 40 ------- 1 1.0 0.0 11 64
- 0.201696 1 0 ack 40 ------- 1 1.0 0.0 11 64
r 0.201696 2 1 tcp 1040 ------- 2 2.0 1.1 11 61
+ 0.201696 1 2 ack 40 ------- 2 1.1 2.0 11 65
- 0.201696 1 2 ack 40 ------- 2 1.1 2.0 11 65
r 0.208096 1 0 ack 40 ------- 1 1.0 0.0 11 62
+ 0.208096 0 1 tcp 1040 ------- 1 0.0 1.0 12 66
- 0.208096 0 1 tcp 1040 ------- 1 0.0 1.0 12 66
+ 0.208096 0 1 tcp 1040 ------- 1 0.0 1.0 13 67
+ 0.208096 0 1 tcp 1040 ------- 1 0.0 1.0 14 68
r 0.208096 1 2 ack 40 ------- 2 1.1 2.0 11 63
+ 0.208096 2 1 tcp 1040 ------- 2 2.0 1.1 12 69
- 0.208096 2 1 tcp 1040 ------- 2 2.0 1.1 12 69
+ 0.208096 2 1 tcp 1040 ------- 2 2.0 1.1 13 70
+ 0.208096 2 1 tcp 1040 ------- 2 2.0 1.1 14 71
r 0.20976 1 0 ack 40 ------- 1 1.0 0.0 11 64
+ 0.20976 0 1 tcp 1040 ------- 1 0.0 1.0 15 72
d 0.20976 0 1 tcp 1040 ------- 1 0.0 1.0 15 72
r 0.20976 1 2 ack 40 ------- 2 1.1 2.0 11 65
+ 0.20976 2 1 tcp 1040 ------- 2 2.0 1.1 15 73
d 0.20976 2 1 tcp 1040 ------- 2 2.0 1.1 15 73
- 0.20976 0 1 tcp 1040 ------- 1 0.0 1.0 13 67
- 0.20976 2 1 tcp 1040 ------- 2 2.0 1.1 13 70
- 0.211424 0 1 tcp 1040 ------- 1 0.0 1.0 14 68
- 0.211424 2 1 tcp 1040 ------- 2 2.0 1.1 14 71
r 0.21776 0 1 tcp 1040 ------- 1 0.0 1.0 12 66
+ 0.21776 1 0 ack 40 ------- 1 1.0 0.0 14 74
- 0.21776 1 0 ack 40 ------- 1 1.0 0.0 14 74
r 0.21776 2 1 tcp 1040 ------- 2 2.0 1.1 12 69
+ 0.21776 1 2 ack 40 ------- 2 1.1 2.0 14 75
- 0.21776 1 2 ack 40 ------- 2 1.1 2.0 14 75
r 0.219424 0 1 tcp 1040 ------- 1 0.0 1.0 13 67
+ 0.219424 1 0 ack 40 ------- 1 1.0 0.0 14 76
- 0.219424 1 0 ack 40 ------- 1 1.0 0.0 14 76
r 0.219424 2 1 tcp 1040 ------- 2 2.0 1.1 13 70
+ 0.219424 1 2 ack 40 ------- 2 1.1 2.0 14 77
- 0.219424 1 2 ack 40 ------- 2 1.1 2.0 14 77
r 0.221088 0 1 tcp 1040 ------- 1 0.0 1.0 14 68
+ 0.221088 1 0 ack 40 ------- 1 1.0 0.0 14 78
- 0.221088 1 0 ack 40 ------- 1 1.0 0.0 14 78
r 0.221088 2 1 tcp 1040 ------- 2 2.0 1.1 14 71
+ 0.221088 1 2 ack 40 ------- 2 1.1 2.0 14 79
- 0.221088 1 2 ack 40 ------- 2 1.1 2.0 14 79
r 0.225824 1 0 ack 40 ------- 1 1.0 0.0 14 74
+ 0.225824 0 1 tcp 1040 ------- 1 0.0 1.0 16 80
- 0.225824 0 1 tcp 1040 ------- 1 0.0 1.0 16 80
+ 0.225824 0 1 tcp 1040 ------- 1 0.0 1.0 17 81
r 0.225824 1 2 ack 40 ------- 2 1.1 2.0 14 75
+ 0.225824 2 1 tcp 1040 ------- 2 2.0 1.1 16 82
- 0.225824 2 1 tcp 1040 ------- 2 2.0 1.1 16 82
+ 0.225824 2 1 tcp 1040 ------- 2 2.0 1.1 17 83
r 0.227488 1 0 ack 40 ------- 1 1.0 0.0 14 76
+ 0.227488 0 1 tcp 1040 ------- 1 0.0 1.0 18 84
r 0.227488 1 2 ack 40 ------- 2 1.1 2.0 14 77
+ 0.227488 2 1 tcp 1040 ------- 2 2.0 1.1 18 85
- 0.227488 0 1 tcp 1040 ------- 1 0.0 1.0 17 81
- 0.227488 2 1 tcp 1040 ------- 2 2.0 1.1 17 83
r 0.229152 1 0 ack 40 ------- 1 1.0 0.0 14 78
+ 0.229152 0 1 tcp 1040 ------- 1 0.0 1.0 19 86
r 0.229152 1 2 ack 40 ------- 2 1.1 2.0 14 79
+ 0.229152 2 1 tcp 1040 ------- 2 2.0 1.1 19 87
- 0.229152 0 1 tcp 1040 ------- 1 0.0 1.0 18 84
- 0.229152 2 1 tcp 1040 ------- 2 2.0 1.1 18 85
- 0.230816 0 1 tcp 1040 ------- 1 0.0 1.0 19 86
- 0.230816 2 1 tcp 1040 ------- 2 2.0 1.1 19 87
r 0.235488 0 1 tcp 1040 ------- 1 0.0 1.0 16 80
+ 0.235488 1 0 ack 40 ------- 1 1.0 0.0 14 88
- 0.235488 1 0 ack 40 ------- 1 1.0 0.0 14 88
r 0.235488 2 1 tcp 1040 ------- 2 2.0 1.1 16 82
+ 0.235488 1 2 ack 40 ------- 2 1.1 2.0 14 89
- 0.235488 1 2 ack 40 ------- 2 1.1 2.0 14 89
r 0.237152 0 1 tcp 1040 ------- 1 0.0 1.0 17 81
+ 0.237152 1 0 ack 40 ------- 1 1.0 0.0 14 90
- 0.237152 1 0 ack 40 ------- 1 1.0 0.0 14 90
r 0.237152 2 1 tcp 1040 ------- 2 2.0 1.1 17 83
+ 0.237152 1 2 ack 40 ------- 2 1.1 2.0 14 91
- 0.237152 1 2 ack 40 ------- 2 1.1 2.0 14 91
r 0.238816 0 1 tcp 1040 ------- 1 0.0 1.0 18 84
+ 0.238816 1 0 ack 40 ------- 1 1.0 0.0 14 92
- 0.238816 1 0 ack 40 ------- 1 1.0 0.0 14 92
r 0.238816 2 1 tcp 1040 ------- 2 2.0 1.1 18 85
+ 0.238816 1 2 ack 40 ------- 2 1.1 2.0 14 93
- 0.238816 1 2 ack 40 ------- 2 1.1 2.0 14 93
r 0.24048 0 1 tcp 1040 ------- 1 0.0 1.0 19 86
+ 0.24048 1 0 ack 40 ------- 1 1.0 0.0 14 94
- 0.24048 1 0 ack 40 ------- 1 1.0 0.0 14 94
r 0.24048 2 1 tcp 1040 ------- 2 2.0 1.1 19 87
+ 0.24048 1 2 ack 40 ------- 2 1.1 2.0 14 95
- 0.24048 1 2 ack 40 ------- 2 1.1 2.0 14 95
r 0.243552 1 0 ack 40 ------- 1 1.0 0.0 14 88
r 0.243552 1 2 ack 40 ------- 2 1.1 2.0 14 89
r 0.245216 1 0 ack 40 ------- 1 1.0 0.0 14 90
r 0.245216 1 2 ack 40 ------- 2 1.1 2.0 14 91
r 0.24688 1 0 ack 40 ------- 1 1.0 0.0 14 92
r 0.24688 1 2 ack 40 ------- 2 1.1 2.0 14 93
r 0.248544 1 0 ack 40 ------- 1 1.0 0.0 14 94
r 0.248544 1 2 ack 40 ------- 2 1.1 2.0 14 95
+ 0.425824 0 1 tcp 1040 ---A--- 1 0.0 1.0 15 96
- 0.425824 0 1 tcp 1040 ---A--- 1 0.0 1.0 15 96
+ 0.425824 2 1 tcp 1040 ---A--- 2 2.0 1.1 15 97
- 0.425824 2 1 tcp 1040 ---A--- 2 2.0 1.1 15 97
r 0.435488 0 1 tcp 1040 ---A--- 1 0.0 1.0 15 96
+ 0.435488 1 0 ack 40 ------- 1 1.0 0.0 19 98
- 0.435488 1 0 ack 40 ------- 1 1.0 0.0 19 98
r 0.435488 2 1 tcp 1040 ---A--- 2 2.0 1.1 15 97
+ 0.435488 1 2 ack 40 ------- 2 1.1 2.0 19 99
- 0.435488 1 2 ack 40 ------- 2 1.1 2.0 19 99
r 0.443552 1 0 ack 40 ------- 1 1.0 0.0 19 98
+ 0.443552 0 1 tcp 1040 ------- 1 0.0 1.0 20 100
- 0.443552 0 1 tcp 1040 ------- 1 0.0 1.0 20 100
+ 0.443552 0 1 tcp 1040 ------- 1 0.0 1.0 21 101
r 0.443552 1 2 ack 40 ------- 2 1.1 2.0 19 99
+ 0.443552 2 1 tcp 1040 ------- 2 2.0 1.1 20 102
- 0.443552 2 1 tcp 1040 ------- 2 2.0 1.1 20 102
+ 0.443552 2 1 tcp 1040 ------- 2 2.0 1.1 21 103
- 0.445216 0 1 tcp 1040 ------- 1 0.0 1.0 21 101
- 0.445216 2 1 tcp 1040 ------- 2 2.0 1.1 21 103
r 0.453216 0 1 tcp 1040 ------- 1 0.0 1.0 20 100
+ 0.453216 1 0 ack 40 ------- 1 1.0 0.0 20 104
- 0.453216 1 0 ack 40 ------- 1 1.0 0.0 20 104
r 0.453216 2 1 tcp 1040 ------- 2 2.0 1.1 20 102
+ 0.453216 1 2 ack 40 ------- 2 1.1 2.0 20 105
- 0.453216 1 2 ack 40 ------- 2 1.1 2.0 20 105
r 0.45488 0 1 tcp 1040 ------- 1 0.0 1.0 21 101
+ 0.45488 1 0 ack 40 ------- 1 1.0 0.0 21 106
- 0.45488 1 0 ack 40 ------- 1 1.0 0.0 21 106
r 0.45488 2 1 tcp 1040 ------- 2 2.0 1.1 21 103
+ 0.45488 1 2 ack 40 ------- 2 1.1 2.0 21 107
- 0.45488 1 2 ack 40 ------- 2 1.1 2.0 21 107
r 0.46128 1 0 ack 40 ------- 1 1.0 0.0 20 104
+ 0.46128 0 1 tcp 1040 ------- 1 0.0 1.0 22 108
- 0.46128 0 1 tcp 1040 ------- 1 0.0 1.0 22 108
r 0.46128 1 2 ack 40 ------- 2 1.1 2.0 20 105
+ 0.46128 2 1 tcp 1040 ------- 2 2.0 1.1 22 109
- 0.46128 2 1 tcp 1040 ------- 2 2.0 1.1 22 109
r 0.462944 1 0 ack 40 ------- 1 1.0 0.0 21 106
+ 0.462944 0 1 tcp 1040 ------- 1 0.0 1.0 23 110
r 0.462944 1 2 ack 40 ------- 2 1.1 2.0 21 107
+ 0.462944 2 1 tcp 1040 ------- 2 2.0 1.1 23 111
- 0.462944 0 1 tcp 1040 ------- 1 0.0 1.0 23 110
- 0.462944 2 1 tcp 1040 ------- 2 2.0 1.1 23 111
r 0.470944 0 1 tcp 1040 ------- 1 0.0 1.0 22 108
+ 0.470944 1 0 ack 40 ------- 1 1.0 0.0 22 112
- 0.470944 1 0 ack 40 ------- 1 1.0 0.0 22 112
r 0.470944 2 1 tcp 1040 ------- 2 2.0 1.1 22 109
+ 0.470944 1 2 ack 40 ------- 2 1.1 2.0 22 113
- 0.470944 1 2 ack 40 ------- 2 1.1 2.0 22 113
r 0.472608 0 1 tcp 1040 ------- 1 0.0 1.0 23 110
+ 0.472608 1 0 ack 40 ------- 1 1.0 0.0 23 114
- 0.472608 1 0 ack 40 ------- 1 1.0 0.0 23 114
r 0.472608 2 1 tcp 1040 ------- 2 2.0 1.1 23 111
+ 0.472608 1 2 ack 40 ------- 2 1.1 2.0 23 115
- 0.472608 1 2 ack 40 ------- 2 1.1 2.0 23 115
r 0.479008 1 0 ack 40 ------- 1 1.0 0.0 22 112
+ 0.479008 0 1 tcp 1040 ------- 1 0.0 1.0 24 116
- 0.479008 0 1 tcp 1040 ------- 1 0.0 1.0 24 116
+ 0.479008 0 1 tcp 1040 ------- 1 0.0 1.0 25 117
r 0.479008 1 2 ack 40 ------- 2 1.1 2.0 22 113
+ 0.479008 2 1 tcp 1040 ------- 2 2.0 1.1 24 118
- 0.479008 2 1 tcp 1040 ------- 2 2.0 1.1 24 118
+ 0.479008 2 1 tcp 1040 ------- 2 2.0 1.1 25 119
r 0.480672 1 0 ack 40 ------- 1 1.0 0.0 23 114
+ 0.480672 0 1 tcp 1040 ------- 1 0.0 1.0 26 120
r 0.480672 1 2 ack 40 ------- 2 1.1 2.0 23 115
+ 0.480672 2 1 tcp 1040 ------- 2 2.0 1.1 26 121
- 0.480672 0 1 tcp 1040 ------- 1 0.0 1.0 25 117
- 0.480672 2 1 tcp 1040 ------- 2 2.0 1.1 25 119
- 0.482336 0 1 tcp 1040 ------- 1 0.0 1.0 26 120
- 0.482336 2 1 tcp 1040 ------- 2 2.0 1.1 26 121
r 0.488672 0 1 tcp 1040 ------- 1 0.0 1.0 24 116
+ 0.488672 1 0 ack 40 ------- 1 1.0 0.0 24 122
- 0.488672 1 0 ack 40 ------- 1 1.0 0.0 24 122
r 0.488672 2 1 tcp 1040 ------- 2 2.0 1.1 24 118
+ 0.488672 1 2 ack 40 ------- 2 1.1 2.0 24 123
- 0.488672 1 2 ack 40 ------- 2 1.1 2.0 24 123
r 0.490336 0 1 tcp 1040 ------- 1 0.0 1.0 25 117
+ 0.490336 1 0 ack 40 ------- 1 1.0 0.0 25 124
- 0.490336 1 0 ack 40 ------- 1 1.0 0.0 25 124
r 0.490336 2 1 tcp 1040 ------- 2 2.0 1.1 25 119
+ 0.490336 1 2 ack 40 ------- 2 1.1 2.0 25 125
- 0.490336 1 2 ack 40 ------- 2 1.1 2.0 25 125
r 0.492 0 1 tcp 1040 ------- 1 0.0 1.0 26 120
+ 0.492 1 0 ack 40 ------- 1 1.0 0.0 26 126
- 0.492 1 0 ack 40 ------- 1 1.0 0.0 26 126
r 0.492 2 1 tcp 1040 ------- 2 2.0 1.1 26 121
+ 0.492 1 2 ack 40 ------- 2 1.1 2.0 26 127
- 0.492 1 2 ack 40 ------- 2 1.1 2.0 26 127
r 0.496736 1 0 ack 40 ------- 1 1.0 0.0 24 122
+ 0.496736 0 1 tcp 1040 ------- 1 0.0 1.0 27 128
- 0.496736 0 1 tcp 1040 ------- 1 0.0 1.0 27 128
r 0.496736 1 2 ack 40 ------- 2 1.1 2.0 24 123
+ 0.496736 2 1 tcp 1040 ------- 2 2.0 1.1 27 129
- 0.496736 2 1 tcp 1040 ------- 2 2.0 1.1 27 129
r 0.4984 1 0 ack 40 ------- 1 1.0 0.0 25 124
+ 0.4984 0 1 tcp 1040 ------- 1 0.0 1.0 28 130
+ 0.4984 0 1 tcp 1040 ------- 1 0.0 1.0 29 131
r 0.4984 1 2 ack 40 ------- 2 1.1 2.0 25 125
+ 0.4984 2 1 tcp 1040 ------- 2 2.0 1.1 28 132
+ 0.4984 2 1 tcp 1040 ------- 2 2.0 1.1 29 133
- 0.4984 0 1 tcp 1040 ------- 1 0.0 1.0 28 130
- 0.4984 2 1 tcp 1040 ------- 2 2.0 1.1 28 132
r 0.500064 1 0 ack 40 ------- 1 1.0 0.0 26 126
+ 0.500064 0 1 tcp 1040 ------- 1 0.0 1.0 30 134
r 0.500064 1 2 ack 40 ------- 2 1.1 2.0 26 127
+ 0.500064 2 1 tcp 1040 ------- 2 2.0 1.1 30 135
- 0.500064 0 1 tcp 1040 ------- 1 0.0 1.0 29 131
- 0.500064 2 1 tcp 1040 ------- 2 2.0 1.1 29 133
- 0.501728 0 1 tcp 1040 ------- 1 0.0 1.0 30 134
- 0.501728 2 1 tcp 1040 ------- 2 2.0 1.1 30 135
r 0.5064 0 1 tcp 1040 ------- 1 0.0 1.0 27 128
+ 0.5064 1 0 ack 40 ------- 1 1.0 0.0 27 136
- 0.5064 1 0 ack 40 ------- 1 1.0 0.0 27 136
r 0.5064 2 1 tcp 1040 ------- 2 2.0 1.1 27 129
+ 0.5064 1 2 ack 40 ------- 2 1.1 2.0 27 137
- 0.5064 1 2 ack 40 ------- 2 1.1 2.0 27 137
r 0.508064 0 1 tcp 1040 ------- 1 0.0 1.0 28 130
+ 0.508064 1 0 ack 40 ------- 1 1.0 0.0 28 138
- 0.508064 1 0 ack 40 ------- 1 1.0 0.0 28 138
r 0.508064 2 1 tcp 1040 ------- 2 2.0 1.1 28 132
+ 0.508064 1 2 ack 40 ------- 2 1.1 2.0 28 139
- 0.508064 1 2 ack 40 ------- 2 1.1 2.0 28 139
r 0.509728 0 1 tcp 1040 ------- 1 0.0 1.0 29 131
+ 0.509728 1 0 ack 40 ------- 1 1.0 0.0 29 140
- 0.509728 1 0 ack 40 ------- 1 1.0 0.0 29 140
r 0.509728 2 1 tcp 1040 ------- 2 2.0 1.1 29 133
+ 0.509728 1 2 ack 40 ------- 2 1.1 2.0 29 141
- 0.509728 1 2 ack 40 ------- 2 1.1 2.0 29 141
r 0.511392 0 1 tcp 1040 ------- 1 0.0 1.0 30 134
+ 0.511392 1 0 ack 40 ------- 1 1.0 0.0 30 142
- 0.511392 1 0 ack 40 ------- 1 1.0 0.0 30 142
r 0.511392 2 1 tcp 1040 ------- 2 2.0 1.1 30 135
+ 0.511392 1 2 ack 40 ------- 2 1.1 2.0 30 143
- 0.511392 1 2 ack 40 ------- 2 1.1 2.0 30 143
r 0.514464 1 0 ack 40 ------- 1 1.0 0.0 27 136
+ 0.514464 0 1 tcp 1040 ------- 1 0.0 1.0 31 144
- 0.514464 0 1 tcp 1040 ------- 1 0.0 1.0 31 144
r 0.514464 1 2 ack 40 ------- 2 1.1 2.0 27 137
+ 0.514464 2 1 tcp 1040 ------- 2 2.0 1.1 31 145
- 0.514464 2 1 tcp 1040 ------- 2 2.0 1.1 31 145
r 0.516128 1 0 ack 40 ------- 1 1.0 0.0 28 138
+ 0.516128 0 1 tcp 1040 ------- 1 0.0 1.0 32 146
r 0.516128 1 2 ack 40 ------- 2 1.1 2.0 28 139
+ 0.516128 2 1 tcp 1040 ------- 2 2.0 1.1 32 147
- 0.516128 0 1 tcp 1040 ------- 1 0.0 1.0 32 146
- 0.516128 2 1 tcp 1040 ------- 2 2.0 1.1 32 147
r 0.517792 1 0 ack 40 ------- 1 1.0 0.0 29 140
+ 0.517792 0 1 tcp 1040 ------- 1 0.0 1.0 33 148
r 0.517792 1 2 ack 40 ------- 2 1.1 2.0 29 141
+ 0.517792 2 1 tcp 1040 ------- 2 2.0 1.1 33 149
- 0.517792 0 1 tcp 1040 ------- 1 0.0 1.0 33 148
- 0.517792 2 1 tcp 1040 ------- 2 2.0 1.1 33 149
r 0.519456 1 0 ack 40 ------- 1 1.0 0.0 30 142
+ 0.519456 0 1 tcp 1040 ------- 1 0.0 1.0 34 150
+ 0.519456 0 1 tcp 1040 ------- 1 0.0 1.0 35 151
r 0.519456 1 2 ack 40 ------- 2 1.1 2.0 30 143
+ 0.519456 2 1 tcp 1040 ------- 2 2.0 1.1 34 152
+ 0.519456 2 1 tcp 1040 ------- 2 2.0 1.1 35 153
- 0.519456 0 1 tcp 1040 ------- 1 0.0 1.0 34 150
- 0.519456 2 1 tcp 1040 ------- 2 2.0 1.1 34 152
- 0.52112 0 1 tcp 1040 ------- 1 0.0 1.0 35 151
- 0.52112 2 1 tcp 1040 ------- 2 2.0 1.1 35 153
r 0.524128 0 1 tcp 1040 ------- 1 0.0 1.0 31 144
+ 0.524128 1 0 ack 40 ------- 1 1.0 0.0 31 154
- 0.524128 1 0 ack 40 ------- 1 1.0 0.0 31 154
r 0.524128 2 1 tcp 1040 ------- 2 2.0 1.1 31 145
+ 0.524128 1 2 ack 40 ------- 2 1.1 2.0 31 155
- 0.524128 1 2 ack 40 ------- 2 1.1 2.0 31 155
r 0.525792 0 1 tcp 1040 ------- 1 0.0 1.0 32 146
+ 0.525792 1 0 ack 40 ------- 1 1.0 0.0 32 156
- 0.525792 1 0 ack 40 ------- 1 1.0 0.0 32 156
r 0.525792 2 1 tcp 1040 ------- 2 2.0 1.1 32 147
+ 0.525792 1 2 ack 40 ------- 2 1.1 2.0 32 157
- 0.525792 1 2 ack 40 ------- 2 1.1 2.0 32 157
r 0.527456 0 1 tcp 1040 ------- 1 0.0 1.0 33 148
+ 0.527456 1 0 ack 40 ------- 1 1.0 0.0 33 158
- 0.527456 1 0 ack 40 ------- 1 1.0 0.0 33 158
r 0.527456 2 1 tcp 1040 ------- 2 2.0 1.1 33 149
+ 0.527456 1 2 ack 40 ------- 2 1.1 2.0 33 159
- 0.527456 1 2 ack 40 ------- 2 1.1 2.0 33 159
r 0.52912 0 1 tcp 1040 ------- 1 0.0 1.0 34 150
+ 0.52912 1 0 ack 40 ------- 1 1.0 0.0 34 160
- 0.52912 1 0 ack 40 ------- 1 1.0 0.0 34 160
r 0.52912 2 1 tcp 1040 ------- 2 2.0 1.1 34 152
+ 0.52912 1 2 ack 40 ------- 2 1.1 2.0 34 161
- 0.52912 1 2 ack 40 ------- 2 1.1 2.0 34 161
r 0.530784 0 1 tcp 1040 ------- 1 0.0 1.0 35 151
+ 0.530784 1 0 ack 40 ------- 1 1.0 0.0 35 162
- 0.530784 1 0 ack 40 ------- 1 1.0 0.0 35 162
r 0.530784 2 1 tcp 1040 ------- 2 2.0 1.1 35 153
+ 0.530784 1 2 ack 40 ------- 2 1.1 2.0 35 163
- 0.530784 1 2 ack 40 ------- 2 1.1 2.0 35 163
r 0.532192 1 0 ack 40 ------- 1 1.0 0.0 31 154
+ 0.532192 0 1 tcp 1040 ------- 1 0.0 1.0 36 164
- 0.532192 0 1 tcp 1040 ------- 1 0.0 1.0 36 164
r 0.532192 1 2 ack 40 ------- 2 1.1 2.0 31 155
+ 0.532192 2 1 tcp 1040 ------- 2 2.0 1.1 36 165
- 0.532192 2 1 tcp 1040 ------- 2 2.0 1.1 36 165
r 0.533856 1 0 ack 40 ------- 1 1.0 0.0 32 156
+ 0.533856 0 1 tcp 1040 ------- 1 0.0 1.0 37 166
r 0.533856 1 2 ack 40 ------- 2 1.1 2.0 32 157
+ 0.533856 2 1 tcp 1040 ------- 2 2.0 1.1 37 167
- 0.533856 0 1 tcp 1040 ------- 1 0.0 1.0 37 166
- 0.533856 2 1 tcp 1040 ------- 2 2.0 1.1 37 167
r 0.53552 1 0 ack 40 ------- 1 1.0 0.0 33 158
+ 0.53552 0 1 tcp 1040 ------- 1 0.0 1.0 38 168
r 0.53552 1 2 ack 40 ------- 2 1.1 2.0 33 159
+ 0.53552 2 1 tcp 1040 ------- 2 2.0 1.1 38 169
- 0.53552 0 1 tcp 1040 ------- 1 0.0 1.0 38 168
- 0.53552 2 1 tcp 1040 ------- 2 2.0 1.1 38 169
r 0.537184 1 0 ack 40 ------- 1 1.0 0.0 34 160
+ 0.537184 0 1 tcp 1040 ------- 1 0.0 1.0 39 170
r 0.537184 1 2 ack 40 ------- 2 1.1 2.0 34 161
+ 0.537184 2 1 tcp 1040 ------- 2 2.0 1.1 39 171
- 0.537184 0 1 tcp 1040 ------- 1 0.0 1.0 39 170
- 0.537184 2 1 tcp 1040 ------- 2 2.0 1.1 39 171
r 0.538848 1 0 ack 40 ------- 1 1.0 0.0 35 162
+ 0.538848 0 1 tcp 1040 ------- 1 0.0 1.0 40 172
+ 0.538848 0 1 tcp 1040 ------- 1 0.0 1.0 41 173
r 0.538848 1 2 ack 40 ------- 2 1.1 2.0 35 163
+ 0.538848 2 1 tcp 1040 ------- 2 2.0 1.1 40 174
+ 0.538848 2 1 tcp 1040 ------- 2 2.0 1.1 41 175
- 0.538848 0 1 tcp 1040 ------- 1 0.0 1.0 40 172
- 0.538848 2 1 tcp 1040 ------- 2 2.0 1.1 40 174
- 0.540512 0 1 tcp 1040 ------- 1 0.0 1.0 41 173
- 0.540512 2 1 tcp 1040 ------- 2 2.0 1.1 41 175
r 0.541856 0 1 tcp 1040 ------- 1 0.0 1.0 36 164
+ 0.541856 1 0 ack 40 ------- 1 1.0 0.0 36 176
- 0.541856 1 0 ack 40 ------- 1 1.0 0.0 36 176
r 0.541856 2 1 tcp 1040 ------- 2 2.0 1.1 36 165
+ 0.541856 1 2 ack 40 ------- 2 1.1 2.0 36 177
- 0.541856 1 2 ack 40 ------- 2 1.1 2.0 36 177
r 0.54352 0 1 tcp 1040 ------- 1 0.0 1.0 37 166
+ 0.54352 1 0 ack 40 ------- 1 1.0 0.0 37 178
- 0.54352 1 0 ack 40 ------- 1 1.0 0.0 37 178
r 0.54352 2 1 tcp 1040 ------- 2 2.0 1.1 37 167
+ 0.54352 1 2 ack 40 ------- 2 1.1 2.0 37 179
- 0.54352 1 2 ack 40 ------- 2 1.1 2.0 37 179
r 0.545184 0 1 tcp 1040 ------- 1 0.0 1.0 38 168
+ 0.545184 1 0 ack 40 ------- 1 1.0 0.0 38 180
- 0.545184 1 0 ack 40 ------- 1 1.0 0.0 38 180
r 0.545184 2 1 tcp 1040 ------- 2 2.0 1.1 38 169
+ 0.545184 1 2 ack 40 ------- 2 1.1 2.0 38 181
- 0.545184 1 2 ack 40 ------- 2 1.1 2.0 38 181
r 0.546848 0 1 tcp 1040 ------- 1 0.0 1.0 39 170
+ 0.546848 1 0 ack 40 ------- 1 1.0 0.0 39 182
- 0.546848 1 0 ack 40 ------- 1 1.0 0.0 39 182
r 0.546848 2 1 tcp 1040 ------- 2 2.0 1.1 39 171
+ 0.546848 1 2 ack 40 ------- 2 1.1 2.0 39 183
- 0.546848 1 2 ack 40 ------- 2 1.1 2.0 39 183
r 0.548512 0 1 tcp 1040 ------- 1 0.0 1.0 40 172
+ 0.548512 1 0 ack 40 ------- 1 1.0 0.0 40 184
- 0.548512 1 0 ack 40 ------- 1 1.0 0.0 40 184
r 0.548512 2 1 tcp 1040 ------- 2 2.0 1.1 40 174
+ 0.548512 1 2 ack 40 ------- 2 1.1 2.0 40 185
- 0.548512 1 2 ack 40 ------- 2 1.1 2.0 40 185
r 0.54992 1 0 ack 40 ------- 1 1.0 0.0 36 176
+ 0.54992 0 1 tcp 1040 ------- 1 0.0 1.0 42 186
- 0.54992 0 1 tcp 1040 ------- 1 0.0 1.0 42 186
r 0.54992 1 2 ack 40 ------- 2 1.1 2.0 36 177
+ 0.54992 2 1 tcp 1040 ------- 2 2.0 1.1 42 187
- 0.54992 2 1 tcp 1040 ------- 2 2.0 1.1 42 187
r 0.550176 0 1 tcp 1040 ------- 1 0.0 1.0 41 173
+ 0.550176 1 0 ack 40 ------- 1 1.0 0.0 41 188
- 0.550176 1 0 ack 40 ------- 1 1.0 0.0 41 188
r 0.550176 2 1 tcp 1040 ------- 2 2.0 1.1 41 175
+ 0.550176 1 2 ack 40 ------- 2 1.1 2.0 41 189
- 0.550176 1 2 ack 40 ------- 2 1.1 2.0 41 189
r 0.551584 1 0 ack 40 ------- 1 1.0 0.0 37 178
+ 0.551584 0 1 tcp 1040 ------- 1 0.0 1.0 43 190
r 0.551584 1 2 ack 40 ------- 2 1.1 2.0 37 179
+ 0.551584 2 1 tcp 1040 ------- 2 2.0 1.1 43 191
- 0.551584 0 1 tcp 1040 ------- 1 0.0 1.0 43 190
- 0.551584 2 1 tcp 1040 ------- 2 2.0 1.1 43 191
r 0.553248 1 0 ack 40 ------- 1 1.0 0.0 38 180
+ 0.553248 0 1 tcp 1040 ------- 1 0.0 1.0 44 192
r 0.553248 1 2 ack 40 ------- 2 1.1 2.0 38 181
+ 0.553248 2 1 tcp 1040 ------- 2 2.0 1.1 44 193
- 0.553248 0 1 tcp 1040 ------- 1 0.0 1.0 44 192
- 0.553248 2 1 tcp 1040 ------- 2 2.0 1.1 44 193
r 0.554912 1 0 ack 40 ------- 1 1.0 0.0 39 182
+ 0.554912 0 1 tcp 1040 ------- 1 0.0 1.0 45 194
r 0.554912 1 2 ack 40 ------- 2 1.1 2.0 39 183
+ 0.554912 2 1 tcp 1040 ------- 2 2.0 1.1 45 195
- 0.554912 0 1 tcp 1040 ------- 1 0.0 1.0 45 194
- 0.554912 2 1 tcp 1040 ------- 2 2.0 1.1 45 195
r 0.556576 1 0 ack 40 ------- 1 1.0 0.0 40 184
+ 0.556576 0 1 tcp 1040 ------- 1 0.0 1.0 46 196
r 0.556576 1 2 ack 40 ------- 2 1.1 2.0 40 185
+ 0.556576 2 1 tcp 1040 ------- 2 2.0 1.1 46 197
- 0.556576 0 1 tcp 1040 ------- 1 0.0 1.0 46 196
- 0.556576 2 1 tcp 1040 ------- 2 2.0 1.1 46 197
r 0.55824 1 0 ack 40 ------- 1 1.0 0.0 41 188
+ 0.55824 0 1 tcp 1040 ------- 1 0.0 1.0 47 198
+ 0.55824 0 1 tcp 1040 ------- 1 0.0 1.0 48 199
r 0.55824 1 2 ack 40 ------- 2 1.1 2.0 41 189
+ 0.55824 2 1 tcp 1040 ------- 2 2.0 1.1 47 200
+ 0.55824 2 1 tcp 1040 ------- 2 2.0 1.1 48 201
- 0.55824 0 1 tcp 1040 ------- 1 0.0 1.0 47 198
- 0.55824 2 1 tcp 1040 ------- 2 2.0 1.1 47 200
r 0.559584 0 1 tcp 1040 ------- 1 0.0 1.0 42 186
+ 0.559584 1 0 ack 40 ------- 1 1.0 0.0 42 202
- 0.559584 1 0 ack 40 ------- 1 1.0 0.0 42 202
r 0.559584 2 1 tcp 1040 ------- 2 2.0 1.1 42 187
+ 0.559584 1 2 ack 40 ------- 2 1.1 2.0 42 203
- 0.559584 1 2 ack 40 ------- 2 1.1 2.0 42 203
- 0.559904 0 1 tcp 1040 ------- 1 0.0 1.0 48 199
- 0.559904 2 1 tcp 1040 ------- 2 2.0 1.1 48 201
r 0.561248 0 1 tcp 1040 ------- 1 0.0 1.0 43 190
+ 0.561248 1 0 ack 40 ------- 1 1.0 0.0 43 204
- 0.561248 1 0 ack 40 ------- 1 1.0 0.0 43 204
r 0.561248 2 1 tcp 1040 ------- 2 2.0 1.1 43 191
+ 0.561248 1 2 ack 40 ------- 2 1.1 2.0 43 205
- 0.561248 1 2 ack 40 ------- 2 1.1 2.0 43 205
r 0.562912 0 1 tcp 1040 ------- 1 0.0 1.0 44 192
+ 0.562912 1 0 ack 40 ------- 1 1.0 0.0 44 206
- 0.562912 1 0 ack 40 ------- 1 1.0 0.0 44 206
r 0.562912 2 1 tcp 1040 ------- 2 2.0 1.1 44 193
+ 0.562912 1 2 ack 40 ------- 2 1.1 2.0 44 207
- 0.562912 1 2 ack 40 ------- 2 1.1 2.0 44 207
r 0.564576 0 1 tcp 1040 ------- 1 0.0 1.0 45 194
+ 0.564576 1 0 ack 40 ------- 1 1.0 0.0 45 208
- 0.564576 1 0 ack 40 ------- 1 1.0 0.0 45 208
r 0.564576 2 1 tcp 1040 ------- 2 2.0 1.1 45 195
+ 0.564576 1 2 ack 40 ------- 2 1.1 2.0 45 209
- 0.564576 1 2 ack 40 ------- 2 1.1 2.0 45 209
r 0.56624 0 1 tcp 1040 ------- 1 0.0 1.0 46 196
+ 0.56624 1 0 ack 40 ------- 1 1.0 0.0 46 210
- 0.56624 1 0 ack 40 ------- 1 1.0 0.0 46 210
r 0.56624 2 1 tcp 1040 ------- 2 2.0 1.1 46 197
+ 0.56624 1 2 ack 40 ------- 2 1.1 2.0 46 211
- 0.56624 1 2 ack 40 ------- 2 1.1 2.0 46 211
r 0.567648 1 0 ack 40 ------- 1 1.0 0.0 42 202
+ 0.567648 0 1 tcp 1040 ------- 1 0.0 1.0 49 212
- 0.567648 0 1 tcp 1040 ------- 1 0.0 1.0 49 212
r 0.567648 1 2 ack 40 ------- 2 1.1 2.0 42 203
+ 0.567648 2 1 tcp 1040 ------- 2 2.0 1.1 49 213
- 0.567648 2 1 tcp 1040 ------- 2 2.0 1.1 49 213
r 0.567904 0 1 tcp 1040 ------- 1 0.0 1.0 47 198
+ 0.567904 1 0 ack 40 ------- 1 1.0 0.0 47 214
- 0.567904 1 0 ack 40 ------- 1 1.0 0.0 47 214
r 0.567904 2 1 tcp 1040 ------- 2 2.0 1.1 47 200
+ 0.567904 1 2 ack 40 ------- 2 1.1 2.0 47 215
- 0.567904 1 2 ack 40 ------- 2 1.1 2.0 47 215
r 0.569312 1 0 ack 40 ------- 1 1.0 0.0 43 204
+ 0.569312 0 1 tcp 1040 ------- 1 0.0 1.0 50 216
r 0.569312 1 2 ack 40 ------- 2 1.1 2.0 43 205
+ 0.569312 2 1 tcp 1040 ------- 2 2.0 1.1 50 217
- 0.569312 0 1 tcp 1040 ------- 1 0.0 1.0 50 216
- 0.569312 2 1 tcp 1040 ------- 2 2.0 1.1 50 217
r 0.569568 0 1 tcp 1040 ------- 1 0.0 1.0 48 199
+ 0.569568 1 0 ack 40 ------- 1 1.0 0.0 48 218
- 0.569568 1 0 ack 40 ------- 1 1.0 0.0 48 218
r 0.569568 2 1 tcp 1040 ------- 2 2.0 1.1 48 201
+ 0.569568 1 2 ack 40 ------- 2 1.1 2.0 48 219